 Entering Gaussian System, Link 0=g09
 Input=/home/iiit/sc4102.04/Tut_assignment_5/Problem_1/Mol_7/mol_7.com
 Output=/home/iiit/sc4102.04/Tut_assignment_5/Problem_1/Mol_7/mol_7.log
 Initial command:
 /global/g09-revC/l1.exe /scratch/Gau-19026.inp -scrdir=/scratch/
 Entering Link 1 = /global/g09-revC/l1.exe PID=     19028.
  
 Copyright (c) 1988,1990,1992,1993,1995,1998,2003,2009,2011,
            Gaussian, Inc.  All Rights Reserved.
  
 This is part of the Gaussian(R) 09 program.  It is based on
 the Gaussian(R) 03 system (copyright 2003, Gaussian, Inc.),
 the Gaussian(R) 98 system (copyright 1998, Gaussian, Inc.),
 the Gaussian(R) 94 system (copyright 1995, Gaussian, Inc.),
 the Gaussian 92(TM) system (copyright 1992, Gaussian, Inc.),
 the Gaussian 90(TM) system (copyright 1990, Gaussian, Inc.),
 the Gaussian 88(TM) system (copyright 1988, Gaussian, Inc.),
 the Gaussian 86(TM) system (copyright 1986, Carnegie Mellon
 University), and the Gaussian 82(TM) system (copyright 1983,
 Carnegie Mellon University). Gaussian is a federally registered
 trademark of Gaussian, Inc.
  
 This software contains proprietary and confidential information,
 including trade secrets, belonging to Gaussian, Inc.
  
 This software is provided under written license and may be
 used, copied, transmitted, or stored only in accord with that
 written license.
  
 The following legend is applicable only to US Government
 contracts under FAR:
  
                    RESTRICTED RIGHTS LEGEND
  
 Use, reproduction and disclosure by the US Government is
 subject to restrictions as set forth in subparagraphs (a)
 and (c) of the Commercial Computer Software - Restricted
 Rights clause in FAR 52.227-19.
  
 Gaussian, Inc.
 340 Quinnipiac St., Bldg. 40, Wallingford CT 06492
  
  
 ---------------------------------------------------------------
 Warning -- This program may not be used in any manner that
 competes with the business of Gaussian, Inc. or will provide
 assistance to any competitor of Gaussian, Inc.  The licensee
 of this program is prohibited from giving any competitor of
 Gaussian, Inc. access to this program.  By using this program,
 the user acknowledges that Gaussian, Inc. is engaged in the
 business of creating and licensing software in the field of
 computational chemistry and represents and warrants to the
 licensee that it is not a competitor of Gaussian, Inc. and that
 it will not use this program in any manner prohibited above.
 ---------------------------------------------------------------
  

 Cite this work as:
 Gaussian 09, Revision C.01,
 M. J. Frisch, G. W. Trucks, H. B. Schlegel, G. E. Scuseria, 
 M. A. Robb, J. R. Cheeseman, G. Scalmani, V. Barone, B. Mennucci, 
 G. A. Petersson, H. Nakatsuji, M. Caricato, X. Li, H. P. Hratchian, 
 A. F. Izmaylov, J. Bloino, G. Zheng, J. L. Sonnenberg, M. Hada, 
 M. Ehara, K. Toyota, R. Fukuda, J. Hasegawa, M. Ishida, T. Nakajima, 
 Y. Honda, O. Kitao, H. Nakai, T. Vreven, J. A. Montgomery, Jr., 
 J. E. Peralta, F. Ogliaro, M. Bearpark, J. J. Heyd, E. Brothers, 
 K. N. Kudin, V. N. Staroverov, T. Keith, R. Kobayashi, J. Normand, 
 K. Raghavachari, A. Rendell, J. C. Burant, S. S. Iyengar, J. Tomasi, 
 M. Cossi, N. Rega, J. M. Millam, M. Klene, J. E. Knox, J. B. Cross, 
 V. Bakken, C. Adamo, J. Jaramillo, R. Gomperts, R. E. Stratmann, 
 O. Yazyev, A. J. Austin, R. Cammi, C. Pomelli, J. W. Ochterski, 
 R. L. Martin, K. Morokuma, V. G. Zakrzewski, G. A. Voth, 
 P. Salvador, J. J. Dannenberg, S. Dapprich, A. D. Daniels, 
 O. Farkas, J. B. Foresman, J. V. Ortiz, J. Cioslowski, 
 and D. J. Fox, Gaussian, Inc., Wallingford CT, 2010.
 
 ******************************************
 Gaussian 09:  EM64L-G09RevC.01 23-Sep-2011
                26-Jun-2022 
 ******************************************
 %chk=mol_7.chk
 ----------------------------
 # hf/3-21g geom=connectivity
 ----------------------------
 1/38=1,57=2/1;
 2/12=2,17=6,18=5,40=1/2;
 3/5=5,11=9,16=1,25=1,30=1/1,2,3;
 4//1;
 5/5=2,38=5/2;
 6/7=2,8=2,9=2,10=2,28=1/1;
 99/5=1,9=1/99;
 -----
 mol_7
 -----
 Charge =  0 Multiplicity = 1
 Symbolic Z-Matrix:
 C                     6.24284   1.92294  -2.45411 
 C                     7.75795   1.92294  -2.45411 
 C                     8.30988   3.33402  -2.45411 
 C                     7.76022   4.13856  -1.29345 
 C                     6.24509   4.13922  -1.29394 
 C                     5.69229   2.7286   -1.29523 
 H                     9.42848   3.30003  -2.3914 
 H                     8.1305    1.37731  -1.54755 
 H                     8.13324   1.37308  -3.35602 
 H                     8.13275   3.70371  -0.32884 
 H                     8.13624   5.1927   -1.35544 
 H                     5.86977   4.68865  -0.39182 
 H                     5.87324   4.68582  -2.20026 
 H                     5.9583    2.22288  -0.32992 
 H                     8.04126   3.83965  -3.41866 
 C                     5.72683   0.47459  -2.36687 
 H                     4.65703   0.47524  -2.38779 
 H                     6.06545   0.02967  -1.45458 
 C                     6.26316  -0.33433  -3.56253 
 H                     7.25702  -0.66881  -3.3498 
 H                     5.63087  -1.18052  -3.73304 
 H                     6.27422   0.28431  -4.43549 
 C                     5.73121   2.51742  -3.77941 
 H                     6.38804   2.2333   -4.57487 
 H                     4.74737   2.1476   -3.97993 
 H                     5.70273   3.58439  -3.70427 
 C                     4.15563   2.77677  -1.38445 
 H                     3.76208   1.78556  -1.29766 
 H                     3.86595   3.19436  -2.32604 
 C                     3.60233   3.6505   -0.24338 
 H                     3.6651    4.68187  -0.52131 
 H                     2.58035   3.39216  -0.05976 
 H                     4.17709   3.48456   0.64376 
 
                          Input orientation:                          
 ---------------------------------------------------------------------
 Center     Atomic      Atomic             Coordinates (Angstroms)
 Number     Number       Type             X           Y           Z
 ---------------------------------------------------------------------
      1          6           0        6.242844    1.922943   -2.454110
      2          6           0        7.757950    1.922943   -2.454110
      3          6           0        8.309881    3.334021   -2.454110
      4          6           0        7.760218    4.138558   -1.293449
      5          6           0        6.245093    4.139219   -1.293938
      6          6           0        5.692293    2.728598   -1.295234
      7          1           0        9.428480    3.300030   -2.391396
      8          1           0        8.130499    1.377309   -1.547548
      9          1           0        8.133244    1.373084   -3.356020
     10          1           0        8.132753    3.703713   -0.328838
     11          1           0        8.136241    5.192695   -1.355444
     12          1           0        5.869773    4.688647   -0.391824
     13          1           0        5.873238    4.685820   -2.200261
     14          1           0        5.958297    2.222876   -0.329919
     15          1           0        8.041263    3.839654   -3.418656
     16          6           0        5.726827    0.474594   -2.366868
     17          1           0        4.657031    0.475244   -2.387794
     18          1           0        6.065446    0.029667   -1.454576
     19          6           0        6.263156   -0.334327   -3.562526
     20          1           0        7.257020   -0.668814   -3.349801
     21          1           0        5.630873   -1.180521   -3.733037
     22          1           0        6.274217    0.284312   -4.435488
     23          6           0        5.731208    2.517416   -3.779415
     24          1           0        6.388037    2.233297   -4.574873
     25          1           0        4.747375    2.147600   -3.979933
     26          1           0        5.702727    3.584394   -3.704266
     27          6           0        4.155634    2.776765   -1.384446
     28          1           0        3.762084    1.785560   -1.297659
     29          1           0        3.865946    3.194360   -2.326038
     30          6           0        3.602327    3.650501   -0.243378
     31          1           0        3.665097    4.681866   -0.521313
     32          1           0        2.580348    3.392156   -0.059757
     33          1           0        4.177094    3.484559    0.643755
 ---------------------------------------------------------------------
                    Distance matrix (angstroms):
                    1          2          3          4          5
     1  C    0.000000
     2  C    1.515106   0.000000
     3  C    2.502755   1.515180   0.000000
     4  C    2.925493   2.501217   1.515435   0.000000
     5  C    2.501576   2.923459   2.501538   1.515125   0.000000
     6  C    1.514985   2.501802   2.925970   2.502859   1.515071
     7  H    3.471106   2.165865   1.120871   2.166037   3.470246
     8  H    2.163981   1.121768   2.163967   2.797529   3.353688
     9  H    2.165502   1.120996   2.165621   3.470042   3.933039
    10  H    3.355545   2.797928   2.164446   1.121761   2.164334
    11  H    3.934882   3.470079   2.166076   1.120911   2.165649
    12  H    3.470061   3.932856   3.470182   2.165481   1.120958
    13  H    2.799024   3.354112   2.798040   2.163908   1.121816
    14  H    2.164050   2.800160   3.358091   2.800919   2.164245
    15  H    2.799722   2.164347   1.121681   2.164448   2.798284
    16  C    1.540000   2.496155   3.854362   4.325684   3.853473
    17  H    2.148263   3.422853   4.638999   4.924147   4.140432
    18  H    2.148263   2.729127   4.117683   4.447606   4.116612
    19  C    2.514809   2.925451   4.344473   5.234176   5.015918
    20  H    2.923700   2.787543   4.234792   5.252867   5.326138
    21  H    3.411987   3.973865   5.403131   6.227223   5.884395
    22  H    2.571372   2.968574   4.167794   5.189973   4.972976
    23  C    1.540000   2.493493   3.012113   3.595136   3.011962
    24  H    2.148263   2.543740   3.066384   4.034927   3.797038
    25  H    2.148263   3.382627   4.053045   4.500926   3.663915
    26  H    2.148263   2.923568   2.902211   3.217515   2.532128
    27  C    2.495925   3.853554   4.325793   3.854321   2.496059
    28  H    2.740515   4.162115   4.941413   4.639148   3.421265
    29  H    2.698619   4.096413   4.447973   4.138008   2.760132
    30  C    3.852807   5.014080   5.210428   4.316122   2.885608
    31  H    4.241713   5.300830   5.208301   4.202545   2.747324
    32  H    4.615776   5.890592   6.209980   5.376817   3.938485
    33  H    4.037665   4.985774   5.167142   4.125439   2.908583
                    6          7          8          9         10
     6  C    0.000000
     7  H    3.935378   0.000000
     8  H    2.799016   2.468540   0.000000
     9  H    3.470230   2.514211   1.808479   0.000000
    10  H    2.800110   2.469011   2.626293   3.820427   0.000000
    11  H    3.471063   2.515007   3.820223   4.311814   1.808590
    12  H    2.165512   4.311721   4.172714   4.990262   2.468834
    13  H    2.163916   3.820562   4.058018   4.173443   3.093892
    14  H    1.121760   4.177573   2.629841   3.822280   2.630806
    15  H    3.355745   1.808543   3.093889   2.469079   3.094160
    16  C    2.496022   4.656815   2.695147   2.752554   4.513231
    17  H    2.709808   5.544921   3.685744   3.718553   5.171359
    18  H    2.729260   4.783608   2.467635   3.113848   4.363445
    19  C    3.853311   4.959775   3.236789   2.540694   5.500718
    20  H    4.267555   4.624446   2.863162   2.221971   5.386290
    21  H    4.607371   6.024712   4.191299   3.595122   6.457841
    22  H    4.021736   4.818946   3.602862   2.409700   5.657829
    23  C    2.493444   4.026027   3.469534   2.694166   4.368202
    24  H    3.389013   3.892272   3.596329   2.295934   4.820266
    25  H    2.904830   5.075853   4.237378   3.528916   5.216585
    26  H    2.556546   3.960520   3.926414   3.304327   4.160862
    27  C    1.540000   5.393576   4.217183   4.656051   4.217940
    28  H    2.148263   5.966399   4.394560   4.849126   4.870387
    29  H    2.148263   5.563922   4.700440   4.752656   4.738554
    30  C    2.514809   6.219395   5.231884   5.950158   4.531545
    31  H    2.919542   6.214761   5.649164   6.240828   4.577529
    32  H    3.413344   7.234773   6.089114   6.765845   5.567645
    33  H    2.574293   6.068216   4.987156   6.008964   4.079363
                   11         12         13         14         15
    11  H    0.000000
    12  H    2.513863   0.000000
    13  H    2.468161   1.808443   0.000000
    14  H    3.822953   2.468136   3.093785   0.000000
    15  H    2.469126   3.820716   2.626940   4.061159   0.000000
    16  C    5.393397   4.656122   4.217063   2.694295   4.217405
    17  H    5.951890   4.817406   4.386716   2.997058   4.882106
    18  H    5.563711   4.782659   4.719402   2.467083   4.719901
    19  C    6.239201   5.953013   5.216290   4.133034   4.539216
    20  H    6.253621   6.275067   5.648752   4.378155   4.576687
    21  H    7.248979   6.757804   6.068122   4.824057   5.577721
    22  H    6.086544   5.992742   4.952807   4.551212   4.098396
    23  C    4.337849   4.026067   2.686238   3.469487   2.686040
    24  H    4.709456   4.878036   3.452342   4.266663   2.578832
    25  H    5.257847   4.537755   3.298084   3.846375   3.745367
    26  H    3.745075   3.495647   1.871963   3.647638   2.369700
    27  C    4.656479   2.752974   2.694478   2.160651   4.512855
    28  H    5.544831   3.700108   3.699077   2.439491   5.198971
    29  H    4.813608   3.160602   2.503896   3.050607   4.363885
    30  C    4.916445   2.498218   3.171485   2.756120   5.460982
    31  H    4.576881   2.208485   2.773944   3.367792   5.315519
    32  H    5.982365   3.551264   4.135027   3.584793   6.426823
    33  H    4.752827   2.321080   3.522550   2.390098   5.617925
                   16         17         18         19         20
    16  C    0.000000
    17  H    1.070000   0.000000
    18  H    1.070000   1.747303   0.000000
    19  C    1.540000   2.148263   2.148263   0.000000
    20  H    2.148263   2.999044   2.345123   1.070000   0.000000
    21  H    2.148263   2.345124   2.616256   1.070000   1.747303
    22  H    2.148263   2.616256   2.999044   1.070000   1.747303
    23  C    2.483632   2.694612   3.421328   2.909028   3.558754
    24  H    2.899227   3.297036   3.833576   2.762813   3.267748
    25  H    2.521954   2.310811   3.549702   2.937989   3.824601
    26  H    3.385273   3.534600   4.222411   3.961129   4.542163
    27  C    2.955299   2.560294   3.346468   4.343336   5.035199
    28  H    2.592692   1.925163   2.900563   3.984834   4.738124
    29  H    3.295705   2.832529   3.951269   4.441525   5.241334
    30  C    4.371395   3.974063   4.543611   5.828860   6.454698
    31  H    5.035666   4.707797   5.317481   6.415689   7.037899
    32  H    4.871884   4.270918   5.039619   6.302312   7.013353
    33  H    4.530498   4.298442   4.461519   6.052135   6.533372
                   21         22         23         24         25
    21  H    0.000000
    22  H    1.747303   0.000000
    23  C    3.699589   2.389988   0.000000
    24  H    3.596685   1.957275   1.070000   0.000000
    25  H    3.452234   2.451657   1.070000   1.747303   0.000000
    26  H    4.765544   3.428093   1.070000   1.747303   1.747303
    27  C    4.832424   4.473206   2.878467   3.931641   2.735427
    28  H    4.268616   4.290750   3.251488   4.223296   2.880359
    29  H    4.922824   4.326422   2.459626   3.513096   2.146623
    30  C    6.295355   6.003667   4.280137   5.341394   4.187086
    31  H    6.967569   6.439468   4.423673   5.462713   4.422203
    32  H    6.611207   6.515396   4.952671   6.018946   4.648947
    33  H    6.559936   6.359105   4.786969   5.804136   4.846769
                   26         27         28         29         30
    26  H    0.000000
    27  C    2.902986   0.000000
    28  H    3.576822   1.070000   0.000000
    29  H    2.329250   1.070000   1.747303   0.000000
    30  C    4.048926   1.540000   2.148263   2.148263   0.000000
    31  H    3.935425   2.148263   3.000117   2.347349   1.070000
    32  H    4.802984   2.148263   2.347349   2.613028   1.070000
    33  H    4.608993   2.148263   2.613029   3.000117   1.070000
                   31         32         33
    31  H    0.000000
    32  H    1.747303   0.000000
    33  H    1.747303   1.747303   0.000000
 Stoichiometry    C11H22
 Framework group  C1[X(C11H22)]
 Deg. of freedom    93
 Full point group                 C1      NOp   1
 Largest Abelian subgroup         C1      NOp   1
 Largest concise Abelian subgroup C1      NOp   1
                         Standard orientation:                         
 ---------------------------------------------------------------------
 Center     Atomic      Atomic             Coordinates (Angstroms)
 Number     Number       Type             X           Y           Z
 ---------------------------------------------------------------------
      1          6           0       -0.663491   -0.166483    0.006311
      2          6           0       -1.304466    1.133545   -0.434851
      3          6           0       -0.547429    2.331796    0.100742
      4          6           0        0.914860    2.278399   -0.293468
      5          6           0        1.556027    0.978692    0.148426
      6          6           0        0.798936   -0.220075   -0.385626
      7          1           0       -1.008589    3.274420   -0.293140
      8          1           0       -1.325688    1.176949   -1.555578
      9          1           0       -2.365962    1.169246   -0.076266
     10          1           0        1.004673    2.378940   -1.407099
     11          1           0        1.460235    3.142133    0.168021
     12          1           0        2.617349    0.942748   -0.210531
     13          1           0        1.577771    0.936382    1.269233
     14          1           0        0.884468   -0.247339   -1.503788
     15          1           0       -0.631477    2.356774    1.218991
     16          6           0       -1.411900   -1.352678   -0.629633
     17          1           0       -0.970850   -2.270367   -0.300664
     18          1           0       -1.344792   -1.286643   -1.695483
     19          6           0       -2.891677   -1.313127   -0.205021
     20          1           0       -3.425059   -0.631197   -0.833810
     21          1           0       -3.315882   -2.290966   -0.298725
     22          1           0       -2.962246   -0.989736    0.812495
     23          6           0       -0.789059   -0.305974    1.534832
     24          1           0       -1.722128    0.108233    1.855325
     25          1           0       -0.747327   -1.340943    1.803155
     26          1           0        0.015032    0.217870    2.008039
     27          6           0        1.431728   -1.514249    0.158697
     28          1           0        0.952149   -2.360594   -0.286954
     29          1           0        1.307945   -1.552463    1.220826
     30          6           0        2.932909   -1.535320   -0.184247
     31          1           0        3.471100   -0.953008    0.534197
     32          1           0        3.289117   -2.544098   -0.164647
     33          1           0        3.081539   -1.123496   -1.160572
 ---------------------------------------------------------------------
 Rotational constants (GHZ):      1.2893167      1.0120456      0.6694588
 Standard basis: 3-21G (6D, 7F)
 There are   143 symmetry adapted basis functions of A   symmetry.
 Integral buffers will be    131072 words long.
 Raffenetti 1 integral format.
 Two-electron integral symmetry is turned on.
   143 basis functions,   231 primitive gaussians,   143 cartesian basis functions
    44 alpha electrons       44 beta electrons
       nuclear repulsion energy       711.1477922651 Hartrees.
 NAtoms=   33 NActive=   33 NUniq=   33 SFac= 1.00D+00 NAtFMM=   60 NAOKFM=F Big=F
 One-electron integrals computed using PRISM.
 NBasis=   143 RedAO= T  NBF=   143
 NBsUse=   143 1.00D-06 NBFU=   143
 Harris functional with IExCor=  205 diagonalized for initial guess.
 ExpMin= 1.83D-01 ExpMax= 1.72D+02 ExpMxC= 1.72D+02 IAcc=1 IRadAn=         1 AccDes= 0.00D+00
 HarFok:  IExCor=  205 AccDes= 0.00D+00 IRadAn=         1 IDoV= 1
 ScaDFX=  1.000000  1.000000  1.000000  1.000000
 FoFCou: FMM=F IPFlag=           0 FMFlag=      100000 FMFlg1=           0
         NFxFlg=           0 DoJE=T BraDBF=F KetDBF=T FulRan=T
         Omega=  0.000000  0.000000  1.000000  0.000000  0.000000 ICntrl=     500 IOpCl=  0
         NMat0=    1 NMatS0=    1 NMatT0=    0 NMatD0=    1 NMtDS0=    0 NMtDT0=    0
         I1Cent=           4 NGrid=           0.
 Petite list used in FoFCou.
 Initial guess orbital symmetries:
       Occupied  (A) (A) (A) (A) (A) (A) (A) (A) (A) (A) (A) (A)
                 (A) (A) (A) (A) (A) (A) (A) (A) (A) (A) (A) (A)
                 (A) (A) (A) (A) (A) (A) (A) (A) (A) (A) (A) (A)
                 (A) (A) (A) (A) (A) (A) (A) (A)
       Virtual   (A) (A) (A) (A) (A) (A) (A) (A) (A) (A) (A) (A)
                 (A) (A) (A) (A) (A) (A) (A) (A) (A) (A) (A) (A)
                 (A) (A) (A) (A) (A) (A) (A) (A) (A) (A) (A) (A)
                 (A) (A) (A) (A) (A) (A) (A) (A) (A) (A) (A) (A)
                 (A) (A) (A) (A) (A) (A) (A) (A) (A) (A) (A) (A)
                 (A) (A) (A) (A) (A) (A) (A) (A) (A) (A) (A) (A)
                 (A) (A) (A) (A) (A) (A) (A) (A) (A) (A) (A) (A)
                 (A) (A) (A) (A) (A) (A) (A) (A) (A) (A) (A) (A)
                 (A) (A) (A)
 The electronic state of the initial guess is 1-A.
 Requested convergence on RMS density matrix=1.00D-08 within 128 cycles.
 Requested convergence on MAX density matrix=1.00D-06.
 Requested convergence on             energy=1.00D-06.
 No special actions if energy rises.
 Integral accuracy reduced to 1.0D-05 until final iterations.
 Initial convergence to 1.0D-05 achieved.  Increase integral accuracy.
 SCF Done:  E(RHF) =  -426.978563324     A.U. after   11 cycles
             Convg  =    0.8948D-08             -V/T =  2.0003

 **********************************************************************

            Population analysis using the SCF density.

 **********************************************************************

 Orbital symmetries:
       Occupied  (A) (A) (A) (A) (A) (A) (A) (A) (A) (A) (A) (A)
                 (A) (A) (A) (A) (A) (A) (A) (A) (A) (A) (A) (A)
                 (A) (A) (A) (A) (A) (A) (A) (A) (A) (A) (A) (A)
                 (A) (A) (A) (A) (A) (A) (A) (A)
       Virtual   (A) (A) (A) (A) (A) (A) (A) (A) (A) (A) (A) (A)
                 (A) (A) (A) (A) (A) (A) (A) (A) (A) (A) (A) (A)
                 (A) (A) (A) (A) (A) (A) (A) (A) (A) (A) (A) (A)
                 (A) (A) (A) (A) (A) (A) (A) (A) (A) (A) (A) (A)
                 (A) (A) (A) (A) (A) (A) (A) (A) (A) (A) (A) (A)
                 (A) (A) (A) (A) (A) (A) (A) (A) (A) (A) (A) (A)
                 (A) (A) (A) (A) (A) (A) (A) (A) (A) (A) (A) (A)
                 (A) (A) (A) (A) (A) (A) (A) (A) (A) (A) (A) (A)
                 (A) (A) (A)
 The electronic state is 1-A.
 Alpha  occ. eigenvalues --  -11.16106 -11.15842 -11.15786 -11.15762 -11.15561
 Alpha  occ. eigenvalues --  -11.15470 -11.14635 -11.14543 -11.13990 -11.13761
 Alpha  occ. eigenvalues --  -11.13647  -1.15470  -1.06429  -1.05668  -0.98442
 Alpha  occ. eigenvalues --   -0.97630  -0.92683  -0.86697  -0.85803  -0.78464
 Alpha  occ. eigenvalues --   -0.77750  -0.71177  -0.65969  -0.63635  -0.62941
 Alpha  occ. eigenvalues --   -0.60706  -0.59548  -0.57529  -0.57064  -0.56080
 Alpha  occ. eigenvalues --   -0.55126  -0.53160  -0.51921  -0.50217  -0.48766
 Alpha  occ. eigenvalues --   -0.48466  -0.47754  -0.47294  -0.46804  -0.45778
 Alpha  occ. eigenvalues --   -0.45060  -0.41858  -0.39843  -0.39620
 Alpha virt. eigenvalues --    0.25051   0.25979   0.28087   0.28308   0.30381
 Alpha virt. eigenvalues --    0.30767   0.31315   0.32050   0.32436   0.33403
 Alpha virt. eigenvalues --    0.33812   0.35568   0.36053   0.36582   0.37138
 Alpha virt. eigenvalues --    0.37786   0.38694   0.39618   0.40458   0.41576
 Alpha virt. eigenvalues --    0.41860   0.43182   0.44122   0.45282   0.45785
 Alpha virt. eigenvalues --    0.48519   0.48920   0.50126   0.51116   0.52060
 Alpha virt. eigenvalues --    0.53160   0.54254   0.56839   0.88897   0.90483
 Alpha virt. eigenvalues --    0.92019   0.92684   0.93717   0.96060   0.97832
 Alpha virt. eigenvalues --    0.98798   1.00961   1.03186   1.03562   1.04287
 Alpha virt. eigenvalues --    1.06607   1.07138   1.08230   1.09348   1.10730
 Alpha virt. eigenvalues --    1.12187   1.14246   1.16089   1.18656   1.21198
 Alpha virt. eigenvalues --    1.22535   1.24595   1.26655   1.29218   1.30835
 Alpha virt. eigenvalues --    1.32399   1.33545   1.36041   1.36894   1.37331
 Alpha virt. eigenvalues --    1.38395   1.38813   1.39901   1.40490   1.41656
 Alpha virt. eigenvalues --    1.42056   1.42606   1.44575   1.45034   1.46635
 Alpha virt. eigenvalues --    1.47557   1.48244   1.50140   1.51870   1.54324
 Alpha virt. eigenvalues --    1.56258   1.56876   1.57242   1.63293   1.71858
 Alpha virt. eigenvalues --    1.75637   1.76736   1.78784   1.85828   2.10697
 Alpha virt. eigenvalues --    2.13537   2.18907   2.27579   2.42655   2.50745
 Alpha virt. eigenvalues --    2.63225   2.67296   2.84900   3.00007
          Condensed to atoms (all electrons):
              1          2          3          4          5          6
     1  C    5.946066   0.243477  -0.094349   0.005632  -0.090728   0.226758
     2  C    0.243477   5.498845   0.241894  -0.098954   0.004636  -0.082714
     3  C   -0.094349   0.241894   5.500161   0.236156  -0.096679   0.003644
     4  C    0.005632  -0.098954   0.236156   5.486544   0.237949  -0.090908
     5  C   -0.090728   0.004636  -0.096679   0.237949   5.537069   0.235344
     6  C    0.226758  -0.082714   0.003644  -0.090908   0.235344   5.687365
     7  H    0.004239  -0.043271   0.396547  -0.042391   0.003857  -0.000282
     8  H   -0.053068   0.392477  -0.047175  -0.000955   0.000271  -0.000416
     9  H   -0.045878   0.397178  -0.041912   0.003708  -0.000261   0.003612
    10  H    0.000177  -0.000683  -0.048870   0.387000  -0.048905  -0.001068
    11  H   -0.000261   0.003862  -0.042697   0.395964  -0.043936   0.003994
    12  H    0.003791  -0.000279   0.003630  -0.040633   0.396635  -0.043379
    13  H   -0.001470   0.000587  -0.001416  -0.047805   0.388093  -0.051468
    14  H   -0.047635  -0.001191   0.000325  -0.000893  -0.043782   0.405171
    15  H   -0.003254  -0.046106   0.387022  -0.048248  -0.001042   0.000766
    16  C    0.275224  -0.084253   0.004231  -0.000365   0.004165  -0.083189
    17  H   -0.047791   0.003798  -0.000077  -0.000002  -0.000008  -0.002612
    18  H   -0.050112  -0.000725  -0.000076   0.000008  -0.000023  -0.000828
    19  C   -0.086048  -0.006274  -0.000008   0.000000  -0.000095   0.004460
    20  H   -0.000273   0.000471   0.000019  -0.000001   0.000001  -0.000114
    21  H    0.004202   0.000185   0.000000   0.000000   0.000001  -0.000063
    22  H   -0.006445  -0.000301  -0.000052   0.000000  -0.000003   0.000110
    23  C    0.239421  -0.089779  -0.001703   0.001334  -0.006594  -0.085289
    24  H   -0.046462  -0.004123  -0.000157   0.000032  -0.000083   0.003822
    25  H   -0.046277   0.003774   0.000067  -0.000035   0.000351   0.000661
    26  H   -0.045865   0.001050  -0.000280   0.000176  -0.002267  -0.004552
    27  C   -0.089193   0.004058  -0.000311   0.004421  -0.088807   0.266426
    28  H   -0.002087  -0.000020  -0.000001  -0.000073   0.003833  -0.046819
    29  H   -0.002429  -0.000029   0.000004  -0.000072  -0.000802  -0.046066
    30  C    0.005084  -0.000077  -0.000004   0.000006  -0.009165  -0.080927
    31  H   -0.000131   0.000001  -0.000002   0.000033   0.000109  -0.000466
    32  H   -0.000079   0.000001   0.000000  -0.000001   0.000278   0.003951
    33  H    0.000090  -0.000006   0.000000  -0.000076  -0.001175  -0.004234
              7          8          9         10         11         12
     1  C    0.004239  -0.053068  -0.045878   0.000177  -0.000261   0.003791
     2  C   -0.043271   0.392477   0.397178  -0.000683   0.003862  -0.000279
     3  C    0.396547  -0.047175  -0.041912  -0.048870  -0.042697   0.003630
     4  C   -0.042391  -0.000955   0.003708   0.387000   0.395964  -0.040633
     5  C    0.003857   0.000271  -0.000261  -0.048905  -0.043936   0.396635
     6  C   -0.000282  -0.000416   0.003612  -0.001068   0.003994  -0.043379
     7  H    0.514656  -0.002517  -0.001753  -0.002435  -0.001701  -0.000051
     8  H   -0.002517   0.533765  -0.022084   0.002685  -0.000049  -0.000017
     9  H   -0.001753  -0.022084   0.513852  -0.000048  -0.000051   0.000004
    10  H   -0.002435   0.002685  -0.000048   0.537260  -0.022575  -0.002233
    11  H   -0.001701  -0.000049  -0.000051  -0.022575   0.517714  -0.001669
    12  H   -0.000051  -0.000017   0.000004  -0.002233  -0.001669   0.504406
    13  H   -0.000047   0.000027  -0.000017   0.003282  -0.002239  -0.022844
    14  H   -0.000023   0.001958  -0.000020   0.002346  -0.000034  -0.001990
    15  H   -0.022395   0.003126  -0.002116   0.003291  -0.002224  -0.000043
    16  C   -0.000061  -0.002600  -0.002905  -0.000043   0.000004  -0.000058
    17  H    0.000001   0.000038  -0.000037   0.000000   0.000000  -0.000001
    18  H    0.000000   0.002471   0.000093   0.000003   0.000000  -0.000001
    19  C    0.000001  -0.000020  -0.001840   0.000000   0.000000   0.000000
    20  H    0.000000   0.000398  -0.001271   0.000000   0.000000   0.000000
    21  H    0.000000  -0.000023   0.000164   0.000000   0.000000   0.000000
    22  H    0.000002   0.000030   0.000261   0.000000   0.000000   0.000000
    23  C   -0.000088   0.004280  -0.002800   0.000005  -0.000011   0.000087
    24  H   -0.000032   0.000090   0.001976   0.000001  -0.000001   0.000001
    25  H    0.000000  -0.000058  -0.000002   0.000001   0.000000  -0.000007
    26  H    0.000014  -0.000102   0.000068  -0.000011  -0.000005   0.000088
    27  C    0.000004  -0.000060  -0.000076  -0.000042  -0.000075  -0.003566
    28  H    0.000000   0.000001  -0.000001   0.000001   0.000001  -0.000035
    29  H    0.000000  -0.000002   0.000002   0.000000   0.000002   0.000150
    30  C    0.000000   0.000000   0.000000  -0.000004   0.000001  -0.001742
    31  H    0.000000   0.000000   0.000000   0.000002   0.000000  -0.001664
    32  H    0.000000   0.000000   0.000000   0.000000   0.000000   0.000181
    33  H    0.000000   0.000000   0.000000   0.000004   0.000002   0.000616
             13         14         15         16         17         18
     1  C   -0.001470  -0.047635  -0.003254   0.275224  -0.047791  -0.050112
     2  C    0.000587  -0.001191  -0.046106  -0.084253   0.003798  -0.000725
     3  C   -0.001416   0.000325   0.387022   0.004231  -0.000077  -0.000076
     4  C   -0.047805  -0.000893  -0.048248  -0.000365  -0.000002   0.000008
     5  C    0.388093  -0.043782  -0.001042   0.004165  -0.000008  -0.000023
     6  C   -0.051468   0.405171   0.000766  -0.083189  -0.002612  -0.000828
     7  H   -0.000047  -0.000023  -0.022395  -0.000061   0.000001   0.000000
     8  H    0.000027   0.001958   0.003126  -0.002600   0.000038   0.002471
     9  H   -0.000017  -0.000020  -0.002116  -0.002905  -0.000037   0.000093
    10  H    0.003282   0.002346   0.003291  -0.000043   0.000000   0.000003
    11  H   -0.002239  -0.000034  -0.002224   0.000004   0.000000   0.000000
    12  H   -0.022844  -0.001990  -0.000043  -0.000058  -0.000001  -0.000001
    13  H    0.538157   0.003083   0.001941  -0.000071   0.000002   0.000000
    14  H    0.003083   0.522683   0.000015  -0.002468   0.000046   0.002705
    15  H    0.001941   0.000015   0.531917  -0.000058   0.000002   0.000000
    16  C   -0.000071  -0.002468  -0.000058   5.458445   0.395439   0.392149
    17  H    0.000002   0.000046   0.000002   0.395439   0.506754  -0.023655
    18  H    0.000000   0.002705   0.000000   0.392149  -0.023655   0.512740
    19  C    0.000001  -0.000018  -0.000004   0.248757  -0.044398  -0.042674
    20  H    0.000000   0.000000   0.000003  -0.044963   0.002997  -0.003633
    21  H    0.000000  -0.000001   0.000000  -0.043506  -0.003395   0.000099
    22  H   -0.000001   0.000000  -0.000011  -0.046590   0.000387   0.002993
    23  C   -0.002042   0.003797   0.000724  -0.090027  -0.001320   0.004338
    24  H    0.000035  -0.000043   0.000733   0.001063   0.000032  -0.000123
    25  H    0.000080  -0.000094   0.000084  -0.005168   0.001992   0.000134
    26  H    0.002138   0.000046  -0.001004   0.003575  -0.000046  -0.000063
    27  C   -0.000944  -0.043488  -0.000022  -0.006959  -0.001440   0.000239
    28  H    0.000039  -0.001428   0.000000  -0.001168   0.000975   0.000199
    29  H    0.001990   0.002886  -0.000006   0.000589   0.000021  -0.000004
    30  C   -0.000269  -0.002299   0.000000   0.000117   0.000112  -0.000025
    31  H    0.000606   0.000122   0.000000  -0.000005  -0.000002   0.000000
    32  H   -0.000033  -0.000060   0.000000   0.000002  -0.000004   0.000000
    33  H    0.000124   0.003302   0.000000  -0.000007  -0.000001   0.000000
             19         20         21         22         23         24
     1  C   -0.086048  -0.000273   0.004202  -0.006445   0.239421  -0.046462
     2  C   -0.006274   0.000471   0.000185  -0.000301  -0.089779  -0.004123
     3  C   -0.000008   0.000019   0.000000  -0.000052  -0.001703  -0.000157
     4  C    0.000000  -0.000001   0.000000   0.000000   0.001334   0.000032
     5  C   -0.000095   0.000001   0.000001  -0.000003  -0.006594  -0.000083
     6  C    0.004460  -0.000114  -0.000063   0.000110  -0.085289   0.003822
     7  H    0.000001   0.000000   0.000000   0.000002  -0.000088  -0.000032
     8  H   -0.000020   0.000398  -0.000023   0.000030   0.004280   0.000090
     9  H   -0.001840  -0.001271   0.000164   0.000261  -0.002800   0.001976
    10  H    0.000000   0.000000   0.000000   0.000000   0.000005   0.000001
    11  H    0.000000   0.000000   0.000000   0.000000  -0.000011  -0.000001
    12  H    0.000000   0.000000   0.000000   0.000000   0.000087   0.000001
    13  H    0.000001   0.000000   0.000000  -0.000001  -0.002042   0.000035
    14  H   -0.000018   0.000000  -0.000001   0.000000   0.003797  -0.000043
    15  H   -0.000004   0.000003   0.000000  -0.000011   0.000724   0.000733
    16  C    0.248757  -0.044963  -0.043506  -0.046590  -0.090027   0.001063
    17  H   -0.044398   0.002997  -0.003395   0.000387  -0.001320   0.000032
    18  H   -0.042674  -0.003633   0.000099   0.002993   0.004338  -0.000123
    19  C    5.398548   0.381777   0.384479   0.381340  -0.009117  -0.002234
    20  H    0.381777   0.512527  -0.025093  -0.027059   0.000394   0.000062
    21  H    0.384479  -0.025093   0.508498  -0.025385  -0.000092   0.000043
    22  H    0.381340  -0.027059  -0.025385   0.511144  -0.002372  -0.000891
    23  C   -0.009117   0.000394  -0.000092  -0.002372   5.446763   0.386937
    24  H   -0.002234   0.000062   0.000043  -0.000891   0.386937   0.508522
    25  H   -0.000590   0.000026  -0.000036   0.000018   0.387817  -0.025937
    26  H    0.000317  -0.000011  -0.000001   0.000228   0.383732  -0.025146
    27  C    0.000125  -0.000004   0.000001  -0.000009  -0.008696   0.000285
    28  H    0.000069  -0.000002  -0.000003   0.000002   0.000258  -0.000026
    29  H   -0.000029   0.000000   0.000001  -0.000002  -0.002398   0.000246
    30  C    0.000000   0.000000   0.000000   0.000000  -0.000043  -0.000001
    31  H    0.000000   0.000000   0.000000   0.000000   0.000007   0.000000
    32  H    0.000000   0.000000   0.000000   0.000000   0.000001   0.000000
    33  H    0.000000   0.000000   0.000000   0.000000  -0.000005   0.000000
             25         26         27         28         29         30
     1  C   -0.046277  -0.045865  -0.089193  -0.002087  -0.002429   0.005084
     2  C    0.003774   0.001050   0.004058  -0.000020  -0.000029  -0.000077
     3  C    0.000067  -0.000280  -0.000311  -0.000001   0.000004  -0.000004
     4  C   -0.000035   0.000176   0.004421  -0.000073  -0.000072   0.000006
     5  C    0.000351  -0.002267  -0.088807   0.003833  -0.000802  -0.009165
     6  C    0.000661  -0.004552   0.266426  -0.046819  -0.046066  -0.080927
     7  H    0.000000   0.000014   0.000004   0.000000   0.000000   0.000000
     8  H   -0.000058  -0.000102  -0.000060   0.000001  -0.000002   0.000000
     9  H   -0.000002   0.000068  -0.000076  -0.000001   0.000002   0.000000
    10  H    0.000001  -0.000011  -0.000042   0.000001   0.000000  -0.000004
    11  H    0.000000  -0.000005  -0.000075   0.000001   0.000002   0.000001
    12  H   -0.000007   0.000088  -0.003566  -0.000035   0.000150  -0.001742
    13  H    0.000080   0.002138  -0.000944   0.000039   0.001990  -0.000269
    14  H   -0.000094   0.000046  -0.043488  -0.001428   0.002886  -0.002299
    15  H    0.000084  -0.001004  -0.000022   0.000000  -0.000006   0.000000
    16  C   -0.005168   0.003575  -0.006959  -0.001168   0.000589   0.000117
    17  H    0.001992  -0.000046  -0.001440   0.000975   0.000021   0.000112
    18  H    0.000134  -0.000063   0.000239   0.000199  -0.000004  -0.000025
    19  C   -0.000590   0.000317   0.000125   0.000069  -0.000029   0.000000
    20  H    0.000026  -0.000011  -0.000004  -0.000002   0.000000   0.000000
    21  H   -0.000036  -0.000001   0.000001  -0.000003   0.000001   0.000000
    22  H    0.000018   0.000228  -0.000009   0.000002  -0.000002   0.000000
    23  C    0.387817   0.383732  -0.008696   0.000258  -0.002398  -0.000043
    24  H   -0.025937  -0.025146   0.000285  -0.000026   0.000246  -0.000001
    25  H    0.507275  -0.025465  -0.001289   0.000007  -0.001523   0.000049
    26  H   -0.025465   0.503323  -0.001047   0.000040   0.000051  -0.000022
    27  C   -0.001289  -0.001047   5.489025   0.395323   0.388667   0.244600
    28  H    0.000007   0.000040   0.395323   0.501692  -0.024056  -0.043371
    29  H   -0.001523   0.000051   0.388667  -0.024056   0.508618  -0.042832
    30  C    0.000049  -0.000022   0.244600  -0.043371  -0.042832   5.380494
    31  H    0.000001  -0.000005  -0.045070   0.002936  -0.003345   0.381630
    32  H    0.000000   0.000001  -0.043510  -0.003289   0.000103   0.384087
    33  H   -0.000002  -0.000001  -0.049550   0.000267   0.003282   0.381727
             31         32         33
     1  C   -0.000131  -0.000079   0.000090
     2  C    0.000001   0.000001  -0.000006
     3  C   -0.000002   0.000000   0.000000
     4  C    0.000033  -0.000001  -0.000076
     5  C    0.000109   0.000278  -0.001175
     6  C   -0.000466   0.003951  -0.004234
     7  H    0.000000   0.000000   0.000000
     8  H    0.000000   0.000000   0.000000
     9  H    0.000000   0.000000   0.000000
    10  H    0.000002   0.000000   0.000004
    11  H    0.000000   0.000000   0.000002
    12  H   -0.001664   0.000181   0.000616
    13  H    0.000606  -0.000033   0.000124
    14  H    0.000122  -0.000060   0.003302
    15  H    0.000000   0.000000   0.000000
    16  C   -0.000005   0.000002  -0.000007
    17  H   -0.000002  -0.000004  -0.000001
    18  H    0.000000   0.000000   0.000000
    19  C    0.000000   0.000000   0.000000
    20  H    0.000000   0.000000   0.000000
    21  H    0.000000   0.000000   0.000000
    22  H    0.000000   0.000000   0.000000
    23  C    0.000007   0.000001  -0.000005
    24  H    0.000000   0.000000   0.000000
    25  H    0.000001   0.000000  -0.000002
    26  H   -0.000005   0.000001  -0.000001
    27  C   -0.045070  -0.043510  -0.049550
    28  H    0.002936  -0.003289   0.000267
    29  H   -0.003345   0.000103   0.003282
    30  C    0.381630   0.384087   0.381727
    31  H    0.513699  -0.025221  -0.027057
    32  H   -0.025221   0.508915  -0.025750
    33  H   -0.027057  -0.025750   0.518723
 Mulliken atomic charges:
              1
     1  C   -0.194328
     2  C   -0.337507
     3  C   -0.397933
     4  C   -0.387551
     5  C   -0.378236
     6  C   -0.220690
     7  H    0.197728
     8  H    0.187530
     9  H    0.202154
    10  H    0.190857
    11  H    0.195983
    12  H    0.210619
    13  H    0.190481
    14  H    0.196981
    15  H    0.196909
    16  C   -0.369297
    17  H    0.212190
    18  H    0.203767
    19  C   -0.606524
    20  H    0.203750
    21  H    0.199925
    22  H    0.212606
    23  C   -0.557520
    24  H    0.201375
    25  H    0.204145
    26  H    0.211044
    27  C   -0.409019
    28  H    0.216738
    29  H    0.216982
    30  C   -0.597132
    31  H    0.203820
    32  H    0.200426
    33  H    0.199726
 Sum of Mulliken atomic charges =   0.00000
 Mulliken charges with hydrogens summed into heavy atoms:
              1
     1  C   -0.194328
     2  C    0.052177
     3  C   -0.003296
     4  C   -0.000711
     5  C    0.022864
     6  C   -0.023709
    16  C    0.046660
    19  C    0.009757
    23  C    0.059044
    27  C    0.024701
    30  C    0.006841
 Sum of Mulliken charges with hydrogens summed into heavy atoms =   0.00000
 Electronic spatial extent (au):  <R**2>=           1976.8873
 Charge=              0.0000 electrons
 Dipole moment (field-independent basis, Debye):
    X=              0.0386    Y=             -0.0853    Z=              0.0514  Tot=              0.1068
 Quadrupole moment (field-independent basis, Debye-Ang):
   XX=            -76.4551   YY=            -75.1926   ZZ=            -74.4045
   XY=             -0.0701   XZ=              0.1312   YZ=             -0.0058
 Traceless Quadrupole moment (field-independent basis, Debye-Ang):
   XX=             -1.1044   YY=              0.1581   ZZ=              0.9462
   XY=             -0.0701   XZ=              0.1312   YZ=             -0.0058
 Octapole moment (field-independent basis, Debye-Ang**2):
  XXX=             -0.5359  YYY=             -6.8308  ZZZ=             -1.8391  XYY=             -0.6116
  XXY=              3.1046  XXZ=              1.1516  XZZ=              0.8414  YZZ=              0.5283
  YYZ=              0.5270  XYZ=              0.4265
 Hexadecapole moment (field-independent basis, Debye-Ang**3):
 XXXX=          -1432.9888 YYYY=          -1052.2203 ZZZZ=           -306.4145 XXXY=             -0.6737
 XXXZ=             -0.2243 YYYX=             -0.1713 YYYZ=             -0.2987 ZZZX=              1.7750
 ZZZY=              0.1898 XXYY=           -413.5529 XXZZ=           -282.6580 YYZZ=           -230.4503
 XXYZ=              0.2985 YYXZ=              2.8975 ZZXY=             -0.2765
 N-N= 7.111477922651D+02 E-N=-2.414577634140D+03  KE= 4.268540331852D+02
 1\1\GINC-NODE02\SP\RHF\3-21G\C11H22\SC4102.04\26-Jun-2022\0\\# hf/3-21
 g geom=connectivity\\mol_7\\0,1\C,0,6.24284369,1.92294331,-2.45411045\
 C,0,7.75794969,1.92294331,-2.45411045\C,0,8.30988069,3.33402131,-2.454
 11045\C,0,7.76021769,4.13855831,-1.29344945\C,0,6.24509269,4.13921931,
 -1.29393845\C,0,5.69229269,2.72859831,-1.29523445\H,0,9.42847969,3.300
 03031,-2.39139645\H,0,8.13049869,1.37730931,-1.54754845\H,0,8.13324369
 ,1.37308431,-3.35602045\H,0,8.13275269,3.70371331,-0.32883845\H,0,8.13
 624069,5.19269531,-1.35544445\H,0,5.86977269,4.68864731,-0.39182445\H,
 0,5.87323769,4.68582031,-2.20026145\H,0,5.95829669,2.22287631,-0.32991
 945\H,0,8.04126269,3.83965431,-3.41865645\C,0,5.72682657,0.47459424,-2
 .36686769\H,0,4.65703141,0.47524382,-2.3877935\H,0,6.06544638,0.029667
 17,-1.45457578\C,0,6.26315554,-0.33432681,-3.56252565\H,0,7.25702009,-
 0.6688138,-3.34980116\H,0,5.63087318,-1.18052121,-3.73303684\H,0,6.274
 21733,0.2843123,-4.43548801\C,0,5.73120844,2.51741617,-3.77941471\H,0,
 6.38803659,2.23329715,-4.57487255\H,0,4.74737488,2.14760012,-3.9799330
 8\H,0,5.70272717,3.58439394,-3.7042664\C,0,4.15563357,2.77676505,-1.38
 444615\H,0,3.76208388,1.78556043,-1.29765879\H,0,3.86594554,3.19435959
 ,-2.32603823\C,0,3.60232659,3.65050144,-0.24337818\H,0,3.66509744,4.68
 186558,-0.52131313\H,0,2.58034781,3.39215558,-0.0597569\H,0,4.17709416
 ,3.48455947,0.64375512\\Version=EM64L-G09RevC.01\State=1-A\HF=-426.978
 5633\RMSD=8.948e-09\Dipole=-0.0411122,0.0033843,-0.0080299\Quadrupole=
 0.0632458,-0.1744649,0.111219,0.1330433,0.3624102,-0.6566897\PG=C01 [X
 (C11H22)]\\@


 KNOWING HOW CONTENTED, FREE, AND JOYFUL IS LIFE IN
 THE REALMS OF SCIENCE, ONE FERVENTLY WISHES THAT
 MANY WOULD ENTER HER PORTALS.
   --  DMITRI IVANOVICH MENDELEEV
 "FIRST PRINCIPLES OF CHEMISTRY", LONGMANS, GREEN,
 AND CO.  LONDON, 1891
 Job cpu time:  0 days  0 hours  0 minutes 14.2 seconds.
 File lengths (MBytes):  RWF=     15 Int=      0 D2E=      0 Chk=      3 Scr=      1
 Normal termination of Gaussian 09 at Sun Jun 26 00:41:28 2022.
