 Entering Gaussian System, Link 0=g09
 Input=/home/iiit/sc4102.04/Tut_assignment_5/Problem_1/Mol_8/mol_8.com
 Output=/home/iiit/sc4102.04/Tut_assignment_5/Problem_1/Mol_8/mol_8.log
 Initial command:
 /global/g09-revC/l1.exe /scratch/Gau-19224.inp -scrdir=/scratch/
 Entering Link 1 = /global/g09-revC/l1.exe PID=     19226.
  
 Copyright (c) 1988,1990,1992,1993,1995,1998,2003,2009,2011,
            Gaussian, Inc.  All Rights Reserved.
  
 This is part of the Gaussian(R) 09 program.  It is based on
 the Gaussian(R) 03 system (copyright 2003, Gaussian, Inc.),
 the Gaussian(R) 98 system (copyright 1998, Gaussian, Inc.),
 the Gaussian(R) 94 system (copyright 1995, Gaussian, Inc.),
 the Gaussian 92(TM) system (copyright 1992, Gaussian, Inc.),
 the Gaussian 90(TM) system (copyright 1990, Gaussian, Inc.),
 the Gaussian 88(TM) system (copyright 1988, Gaussian, Inc.),
 the Gaussian 86(TM) system (copyright 1986, Carnegie Mellon
 University), and the Gaussian 82(TM) system (copyright 1983,
 Carnegie Mellon University). Gaussian is a federally registered
 trademark of Gaussian, Inc.
  
 This software contains proprietary and confidential information,
 including trade secrets, belonging to Gaussian, Inc.
  
 This software is provided under written license and may be
 used, copied, transmitted, or stored only in accord with that
 written license.
  
 The following legend is applicable only to US Government
 contracts under FAR:
  
                    RESTRICTED RIGHTS LEGEND
  
 Use, reproduction and disclosure by the US Government is
 subject to restrictions as set forth in subparagraphs (a)
 and (c) of the Commercial Computer Software - Restricted
 Rights clause in FAR 52.227-19.
  
 Gaussian, Inc.
 340 Quinnipiac St., Bldg. 40, Wallingford CT 06492
  
  
 ---------------------------------------------------------------
 Warning -- This program may not be used in any manner that
 competes with the business of Gaussian, Inc. or will provide
 assistance to any competitor of Gaussian, Inc.  The licensee
 of this program is prohibited from giving any competitor of
 Gaussian, Inc. access to this program.  By using this program,
 the user acknowledges that Gaussian, Inc. is engaged in the
 business of creating and licensing software in the field of
 computational chemistry and represents and warrants to the
 licensee that it is not a competitor of Gaussian, Inc. and that
 it will not use this program in any manner prohibited above.
 ---------------------------------------------------------------
  

 Cite this work as:
 Gaussian 09, Revision C.01,
 M. J. Frisch, G. W. Trucks, H. B. Schlegel, G. E. Scuseria, 
 M. A. Robb, J. R. Cheeseman, G. Scalmani, V. Barone, B. Mennucci, 
 G. A. Petersson, H. Nakatsuji, M. Caricato, X. Li, H. P. Hratchian, 
 A. F. Izmaylov, J. Bloino, G. Zheng, J. L. Sonnenberg, M. Hada, 
 M. Ehara, K. Toyota, R. Fukuda, J. Hasegawa, M. Ishida, T. Nakajima, 
 Y. Honda, O. Kitao, H. Nakai, T. Vreven, J. A. Montgomery, Jr., 
 J. E. Peralta, F. Ogliaro, M. Bearpark, J. J. Heyd, E. Brothers, 
 K. N. Kudin, V. N. Staroverov, T. Keith, R. Kobayashi, J. Normand, 
 K. Raghavachari, A. Rendell, J. C. Burant, S. S. Iyengar, J. Tomasi, 
 M. Cossi, N. Rega, J. M. Millam, M. Klene, J. E. Knox, J. B. Cross, 
 V. Bakken, C. Adamo, J. Jaramillo, R. Gomperts, R. E. Stratmann, 
 O. Yazyev, A. J. Austin, R. Cammi, C. Pomelli, J. W. Ochterski, 
 R. L. Martin, K. Morokuma, V. G. Zakrzewski, G. A. Voth, 
 P. Salvador, J. J. Dannenberg, S. Dapprich, A. D. Daniels, 
 O. Farkas, J. B. Foresman, J. V. Ortiz, J. Cioslowski, 
 and D. J. Fox, Gaussian, Inc., Wallingford CT, 2010.
 
 ******************************************
 Gaussian 09:  EM64L-G09RevC.01 23-Sep-2011
                26-Jun-2022 
 ******************************************
 %chk=mol_8.chk
 ----------------------------
 # hf/3-21g geom=connectivity
 ----------------------------
 1/38=1,57=2/1;
 2/12=2,17=6,18=5,40=1/2;
 3/5=5,11=9,16=1,25=1,30=1/1,2,3;
 4//1;
 5/5=2,38=5/2;
 6/7=2,8=2,9=2,10=2,28=1/1;
 99/5=1,9=1/99;
 -----
 mol_8
 -----
 Charge =  0 Multiplicity = 1
 Symbolic Z-Matrix:
 C                     0.01046  -3.73328  -0.31938 
 H                     0.36711  -4.74209  -0.31938 
 H                     0.36713  -3.22888  -1.19303 
 H                    -1.05954  -3.73326  -0.31938 
 C                     0.5238   -3.00732   0.93802 
 H                     0.16874  -1.99795   0.93705 
 H                     0.16553  -3.51059   1.81167 
 C                     2.0638   -3.00978   0.93943 
 H                     2.42047  -2.50505   1.8129 
 H                     2.41885  -4.01915   0.94079 
 C                     2.57944  -2.28592  -0.31824 
 H                     2.60878  -2.9727   -1.13822 
 H                     1.92438  -1.47404  -0.55626 
 C                     3.99563  -1.7421   -0.05318 
 H                     4.38237  -1.30266  -0.94885 
 H                     4.63366  -2.54386   0.25504 
 C                     3.93692  -0.67682   1.05737 
 H                     3.94652  -1.15731   2.01337 
 C                     2.84591   0.01906   0.93308 
 H                     2.52897   0.00595  -0.08882 
 H                     2.08057  -0.40447   1.54934 
 H                     3.0302    1.02848   1.23642 
 C                     5.15681   0.25566   0.93924 
 H                     5.15292   0.95263   1.7511 
 H                     5.11052   0.7878    0.0121 
 C                     6.44891  -0.58087   0.98703 
 H                     6.63105  -1.01113   0.02442 
 H                     6.34232  -1.3607    1.71188 
 C                     7.63227   0.32421   1.377 
 H                     7.69441   1.14459   0.69289 
 H                     7.4842    0.69733   2.36884 
 C                     8.93932  -0.48846   1.32407 
 H                     9.0909   -0.85584   0.33061 
 H                     9.76068   0.13861   1.60165 
 H                     8.87452  -1.31279   2.00316 
 
                          Input orientation:                          
 ---------------------------------------------------------------------
 Center     Atomic      Atomic             Coordinates (Angstroms)
 Number     Number       Type             X           Y           Z
 ---------------------------------------------------------------------
      1          6           0        0.010457   -3.733275   -0.319381
      2          1           0        0.367112   -4.742085   -0.319381
      3          1           0        0.367130   -3.228877   -1.193032
      4          1           0       -1.059543   -3.733262   -0.319381
      5          6           0        0.523800   -3.007319    0.938024
      6          1           0        0.168743   -1.997946    0.937047
      7          1           0        0.165531   -3.510587    1.811674
      8          6           0        2.063797   -3.009775    0.939433
      9          1           0        2.420470   -2.505051    1.812896
     10          1           0        2.418853   -4.019148    0.940787
     11          6           0        2.579436   -2.285915   -0.318241
     12          1           0        2.608783   -2.972698   -1.138222
     13          1           0        1.924378   -1.474038   -0.556263
     14          6           0        3.995630   -1.742098   -0.053180
     15          1           0        4.382368   -1.302656   -0.948850
     16          1           0        4.633664   -2.543856    0.255035
     17          6           0        3.936917   -0.676818    1.057374
     18          1           0        3.946522   -1.157311    2.013374
     19          6           0        2.845909    0.019064    0.933084
     20          1           0        2.528971    0.005946   -0.088816
     21          1           0        2.080570   -0.404471    1.549343
     22          1           0        3.030202    1.028480    1.236423
     23          6           0        5.156807    0.255659    0.939241
     24          1           0        5.152921    0.952635    1.751096
     25          1           0        5.110518    0.787799    0.012103
     26          6           0        6.448911   -0.580872    0.987027
     27          1           0        6.631051   -1.011127    0.024424
     28          1           0        6.342324   -1.360699    1.711879
     29          6           0        7.632273    0.324211    1.377000
     30          1           0        7.694414    1.144595    0.692888
     31          1           0        7.484196    0.697330    2.368844
     32          6           0        8.939318   -0.488458    1.324067
     33          1           0        9.090898   -0.855837    0.330610
     34          1           0        9.760680    0.138609    1.601647
     35          1           0        8.874517   -1.312793    2.003164
 ---------------------------------------------------------------------
                    Distance matrix (angstroms):
                    1          2          3          4          5
     1  C    0.000000
     2  H    1.070000   0.000000
     3  H    1.070000   1.747302   0.000000
     4  H    1.070000   1.747303   1.747303   0.000000
     5  C    1.540000   2.148263   2.148263   2.148263   0.000000
     6  H    2.148263   3.024609   2.468154   2.469538   1.070000
     7  H    2.148263   2.469538   3.024610   2.468154   1.070000
     8  C    2.514810   2.732078   2.733878   3.444313   1.540000
     9  H    3.444314   3.710419   3.711568   4.262111   2.148263
    10  H    2.733151   2.514021   3.063867   3.710659   2.148263
    11  C    2.948644   3.305624   2.559049   3.916245   2.514809
    12  H    2.828475   2.970913   2.256909   3.834784   2.942643
    13  H    2.970414   3.627854   2.431040   3.750199   2.558411
    14  C    4.462875   4.715605   4.083599   5.439703   3.825817
    15  H    5.041602   5.324302   4.460055   5.993202   4.621117
    16  H    4.808192   4.833802   4.557353   5.844420   4.191928
    17  C    5.162797   5.582595   4.931604   6.016803   4.134592
    18  H    5.250708   5.577143   5.233017   6.094091   4.036575
    19  C    4.867083   5.511954   4.605847   5.558882   3.814604
    20  H    4.514183   5.222125   4.044370   5.187703   3.762297
    21  H    4.342630   5.024238   4.293456   4.943004   3.093875
    22  H    5.849247   6.543088   5.578467   6.466894   4.760122
    23  C    6.631790   7.035819   6.295203   7.492571   5.666726
    24  H    7.258757   7.721443   7.004051   8.052280   6.145818
    25  H    6.823534   7.293106   6.331332   7.656339   6.024802
    26  C    7.286840   7.484028   6.982309   8.247493   6.402889
    27  H    7.166627   7.298985   6.755540   8.165381   6.489835
    28  H    7.060288   7.159815   6.901561   8.033848   6.096346
    29  C    8.799601   9.018183   8.485977   9.741071   7.862709
    30  H    9.157592   9.453415   8.739167  10.072236   8.289523
    31  H    9.094701   9.352363   8.874384   9.992606   8.013663
    32  C    9.641282   9.709634   9.344950  10.639873   8.792875
    33  H    9.547594   9.572349   9.168257  10.570407   8.853982
    34  H   10.665303  10.758748  10.362865  11.651565   9.780451
    35  H    9.477579   9.462041   9.287771  10.485153   8.587225
                    6          7          8          9         10
     6  H    0.000000
     7  H    1.747303   0.000000
     8  C    2.148263   2.148263   0.000000
     9  H    2.468712   2.468979   1.070000   0.000000
    10  H    3.024610   2.468713   1.070000   1.747303   0.000000
    11  C    2.733150   3.444314   1.540000   2.148263   2.148263
    12  H    3.348234   3.867905   2.148263   2.993869   2.335253
    13  H    2.363622   3.584439   2.148263   2.630971   2.993869
    14  C    3.961196   4.612472   2.514809   2.558411   2.942644
    15  H    4.668476   5.502470   3.443202   3.594724   3.847785
    16  H    4.549580   4.829277   2.699944   2.706781   2.748114
    17  C    3.994871   4.777298   2.994191   2.492561   3.672775
    18  H    4.017058   4.458081   2.851250   2.045832   3.416771
    19  C    3.351948   4.518272   3.128195   2.706700   4.060738
    20  H    3.261694   4.643675   3.219978   3.151728   4.156151
    21  H    2.563035   3.658436   2.675796   2.144162   3.681123
    22  H    4.175742   5.398184   4.162889   3.631795   5.093103
    23  C    5.473529   6.313366   4.497752   3.984010   5.076452
    24  H    5.848985   6.693137   5.089418   4.407460   5.731523
    25  H    5.747785   6.794666   4.956210   4.617583   5.586972
    26  C    6.438253   6.981700   5.013089   4.540139   5.297664
    27  H    6.600614   7.158528   5.068692   4.812425   5.256474
    28  H    6.254562   6.541006   4.649938   4.086648   4.801621
    29  C    7.828809   8.405169   6.504987   5.946228   6.799617
    30  H    8.159099   8.922247   7.001673   6.510670   7.386287
    31  H    7.926564   8.460489   6.720608   6.017113   7.066981
    32  C    8.907936   9.292490   7.333333   6.841124   7.424900
    33  H    9.015377   9.428862   7.374976   7.029345   7.409118
    34  H    9.849458  10.267797   8.342234   7.804630   8.463221
    35  H    8.797531   8.984065   7.099098   6.566004   7.080156
                   11         12         13         14         15
    11  C    0.000000
    12  H    1.070000   0.000000
    13  H    1.070000   1.747303   0.000000
    14  C    1.540000   2.148263   2.148263   0.000000
    15  H    2.148263   2.443462   2.495038   1.070000   0.000000
    16  H    2.148263   2.495038   3.023731   1.070000   1.747303
    17  C    2.514809   3.443203   2.699944   1.540000   2.148263
    18  H    2.929009   3.875271   3.285181   2.148263   2.997642
    19  C    2.636237   3.646528   2.301461   2.322987   2.765741
    20  H    2.303868   3.159104   1.665650   2.282108   2.426352
    21  H    2.697511   3.754704   2.366843   2.832805   3.513685
    22  H    3.688548   4.671825   3.270958   3.204876   3.469578
    23  C    3.831932   4.607664   3.959416   2.514809   2.567681
    24  H    4.625277   5.498093   4.651466   3.443301   3.601361
    25  H    3.995400   4.660822   3.948472   2.765432   2.413221
    26  C    4.425351   4.998409   4.863218   2.906727   2.922189
    27  H    4.261231   4.623650   4.764898   2.736016   2.467554
    28  H    4.374556   4.965979   4.967450   2.961059   3.305189
    29  C    5.934456   6.513939   6.288980   4.420432   4.314876
    30  H    6.241296   6.794756   6.458400   4.750854   4.433282
    31  H    6.338521   7.038343   6.647005   4.897664   4.962698
    32  C    6.810002   7.232564   7.329147   5.282847   5.157020
    33  H    6.698154   6.975413   7.247601   5.185992   4.899685
    34  H    7.818859   8.266605   8.286425   6.285803   6.124420
    35  H    6.779671   7.202987   7.408178   5.311911   5.375304
                   16         17         18         19         20
    16  H    0.000000
    17  C    2.148263   0.000000
    18  H    2.342312   1.070000   0.000000
    19  C    3.197558   1.300000   1.939648   0.000000
    20  H    3.324073   1.939648   2.789591   1.070000   0.000000
    21  H    3.573582   1.939648   2.064914   1.070000   1.747303
    22  H    4.036805   1.939648   2.494188   1.070000   1.747303
    23  C    2.929010   1.540000   2.148263   2.322987   2.832804
    24  H    3.838395   2.148263   2.444598   2.619734   3.341648
    25  H    3.374364   2.148263   3.023809   2.562736   2.699234
    26  C    2.772046   2.514809   2.765433   3.653007   4.107034
    27  H    2.528239   2.904669   3.344247   4.026693   4.227804
    28  H    2.538065   2.584967   2.423249   3.838644   4.433045
    29  C    4.298403   3.841858   4.023014   4.816582   5.319173
    30  H    4.812959   4.191560   4.592292   4.983224   5.346905
    31  H    4.806143   4.023857   4.010136   4.902567   5.574259
    32  C    4.889391   5.013045   5.084341   6.126997   6.582798
    33  H    4.766765   5.208047   5.420995   6.334692   6.631552
    34  H    5.940983   5.905707   5.971044   6.948046   7.427846
    35  H    4.749348   5.067433   4.930458   6.266023   6.810390
                   21         22         23         24         25
    21  H    0.000000
    22  H    1.747303   0.000000
    23  C    3.204876   2.282109   0.000000
    24  H    3.364785   2.185538   1.070000   0.000000
    25  H    3.600722   2.425820   1.070000   1.747303   0.000000
    26  C    4.407915   3.786791   1.540000   2.148263   2.148263
    27  H    4.837384   4.312198   2.148263   3.003769   2.355485
    28  H    4.370737   4.111495   2.148263   2.601487   3.003769
    29  C    5.601972   4.657770   2.514809   2.584967   2.904670
    30  H    5.886286   4.697211   2.700064   2.759682   2.695791
    31  H    5.575368   4.607614   2.766872   2.425209   3.346156
    32  C    6.862961   6.101348   3.874170   4.073808   4.243795
    33  H    7.129779   6.411177   4.133150   4.560265   4.318149
    34  H    7.699466   6.798868   4.652756   4.681498   4.957026
    35  H    6.869405   6.342356   4.172930   4.364170   4.748105
                   26         27         28         29         30
    26  C    0.000000
    27  H    1.070000   0.000000
    28  H    1.070000   1.747303   0.000000
    29  C    1.540000   2.148263   2.148263   0.000000
    30  H    2.148263   2.494939   3.023737   1.070000   0.000000
    31  H    2.148263   3.023738   2.443554   1.070000   1.747303
    32  C    2.514809   2.700065   2.766872   1.540000   2.148263
    33  H    2.736163   2.483690   3.117282   2.148263   2.466403
    34  H    3.444304   3.688375   3.734332   2.148263   2.471297
    35  H    2.729800   3.006586   2.549342   2.148263   3.024603
                   31         32         33         34         35
    31  H    0.000000
    32  C    2.148263   0.000000
    33  H    3.024602   1.070000   0.000000
    34  H    2.466402   1.070000   1.747303   0.000000
    35  H    2.471297   1.070000   1.747303   1.747303   0.000000
 Stoichiometry    C11H24
 Framework group  C1[X(C11H24)]
 Deg. of freedom    99
 Full point group                 C1      NOp   1
 Largest Abelian subgroup         C1      NOp   1
 Largest concise Abelian subgroup C1      NOp   1
                         Standard orientation:                         
 ---------------------------------------------------------------------
 Center     Atomic      Atomic             Coordinates (Angstroms)
 Number     Number       Type             X           Y           Z
 ---------------------------------------------------------------------
      1          6           0        4.706565   -0.644645    0.286389
      2          1           0        4.782011   -1.687198    0.057721
      3          1           0        4.296537   -0.523397    1.267244
      4          1           0        5.679071   -0.199983    0.248878
      5          6           0        3.788429    0.041367   -0.742209
      6          1           0        3.711434    1.083557   -0.512402
      7          1           0        4.199460   -0.078216   -1.722848
      8          6           0        2.389531   -0.600486   -0.690171
      9          1           0        1.751501   -0.123591   -1.404586
     10          1           0        2.466476   -1.642599   -0.920344
     11          6           0        1.798175   -0.428848    0.721366
     12          1           0        2.150497   -1.216679    1.353893
     13          1           0        2.102997    0.514711    1.123463
     14          6           0        0.261025   -0.481338    0.643820
     15          1           0       -0.147727   -0.434649    1.631565
     16          1           0       -0.041488   -1.394574    0.175432
     17          6           0       -0.252434    0.713349   -0.181215
     18          1           0       -0.195522    0.477833   -1.223421
     19          6           0        0.479733    1.758370    0.067504
     20          1           0        0.906275    1.670597    1.044877
     21          1           0        1.262733    1.826284   -0.658580
     22          1           0       -0.127179    2.638364    0.020932
     23          6           0       -1.715141    1.009054    0.199111
     24          1           0       -2.093581    1.793690   -0.422201
     25          1           0       -1.762933    1.311472    1.224372
     26          6           0       -2.564390   -0.259785   -0.001945
     27          1           0       -2.433953   -0.912701    0.835663
     28          1           0       -2.253153   -0.759401   -0.895486
     29          6           0       -4.049317    0.130161   -0.122499
     30          1           0       -4.341536    0.692487    0.739648
     31          1           0       -4.191895    0.724216   -1.000946
     32          6           0       -4.908461   -1.144219   -0.219591
     33          1           0       -4.771131   -1.734970    0.661916
     34          1           0       -5.939584   -0.873171   -0.310240
     35          1           0       -4.611605   -1.709963   -1.077910
 ---------------------------------------------------------------------
 Rotational constants (GHZ):      2.8977609      0.3458905      0.3288493
 Standard basis: 3-21G (6D, 7F)
 There are   147 symmetry adapted basis functions of A   symmetry.
 Integral buffers will be    131072 words long.
 Raffenetti 1 integral format.
 Two-electron integral symmetry is turned on.
   147 basis functions,   237 primitive gaussians,   147 cartesian basis functions
    45 alpha electrons       45 beta electrons
       nuclear repulsion energy       663.1765333364 Hartrees.
 NAtoms=   35 NActive=   35 NUniq=   35 SFac= 1.00D+00 NAtFMM=   60 NAOKFM=F Big=F
 One-electron integrals computed using PRISM.
 NBasis=   147 RedAO= T  NBF=   147
 NBsUse=   147 1.00D-06 NBFU=   147
 Harris functional with IExCor=  205 diagonalized for initial guess.
 ExpMin= 1.83D-01 ExpMax= 1.72D+02 ExpMxC= 1.72D+02 IAcc=1 IRadAn=         1 AccDes= 0.00D+00
 HarFok:  IExCor=  205 AccDes= 0.00D+00 IRadAn=         1 IDoV= 1
 ScaDFX=  1.000000  1.000000  1.000000  1.000000
 FoFCou: FMM=F IPFlag=           0 FMFlag=      100000 FMFlg1=           0
         NFxFlg=           0 DoJE=T BraDBF=F KetDBF=T FulRan=T
         Omega=  0.000000  0.000000  1.000000  0.000000  0.000000 ICntrl=     500 IOpCl=  0
         NMat0=    1 NMatS0=    1 NMatT0=    0 NMatD0=    1 NMtDS0=    0 NMtDT0=    0
         I1Cent=           4 NGrid=           0.
 Petite list used in FoFCou.
 Initial guess orbital symmetries:
       Occupied  (A) (A) (A) (A) (A) (A) (A) (A) (A) (A) (A) (A)
                 (A) (A) (A) (A) (A) (A) (A) (A) (A) (A) (A) (A)
                 (A) (A) (A) (A) (A) (A) (A) (A) (A) (A) (A) (A)
                 (A) (A) (A) (A) (A) (A) (A) (A) (A)
       Virtual   (A) (A) (A) (A) (A) (A) (A) (A) (A) (A) (A) (A)
                 (A) (A) (A) (A) (A) (A) (A) (A) (A) (A) (A) (A)
                 (A) (A) (A) (A) (A) (A) (A) (A) (A) (A) (A) (A)
                 (A) (A) (A) (A) (A) (A) (A) (A) (A) (A) (A) (A)
                 (A) (A) (A) (A) (A) (A) (A) (A) (A) (A) (A) (A)
                 (A) (A) (A) (A) (A) (A) (A) (A) (A) (A) (A) (A)
                 (A) (A) (A) (A) (A) (A) (A) (A) (A) (A) (A) (A)
                 (A) (A) (A) (A) (A) (A) (A) (A) (A) (A) (A) (A)
                 (A) (A) (A) (A) (A) (A)
 The electronic state of the initial guess is 1-A.
 Requested convergence on RMS density matrix=1.00D-08 within 128 cycles.
 Requested convergence on MAX density matrix=1.00D-06.
 Requested convergence on             energy=1.00D-06.
 No special actions if energy rises.
 Integral accuracy reduced to 1.0D-05 until final iterations.
 Initial convergence to 1.0D-05 achieved.  Increase integral accuracy.
 SCF Done:  E(RHF) =  -428.078761197     A.U. after   11 cycles
             Convg  =    0.6877D-08             -V/T =  1.9978

 **********************************************************************

            Population analysis using the SCF density.

 **********************************************************************

 Orbital symmetries:
       Occupied  (A) (A) (A) (A) (A) (A) (A) (A) (A) (A) (A) (A)
                 (A) (A) (A) (A) (A) (A) (A) (A) (A) (A) (A) (A)
                 (A) (A) (A) (A) (A) (A) (A) (A) (A) (A) (A) (A)
                 (A) (A) (A) (A) (A) (A) (A) (A) (A)
       Virtual   (A) (A) (A) (A) (A) (A) (A) (A) (A) (A) (A) (A)
                 (A) (A) (A) (A) (A) (A) (A) (A) (A) (A) (A) (A)
                 (A) (A) (A) (A) (A) (A) (A) (A) (A) (A) (A) (A)
                 (A) (A) (A) (A) (A) (A) (A) (A) (A) (A) (A) (A)
                 (A) (A) (A) (A) (A) (A) (A) (A) (A) (A) (A) (A)
                 (A) (A) (A) (A) (A) (A) (A) (A) (A) (A) (A) (A)
                 (A) (A) (A) (A) (A) (A) (A) (A) (A) (A) (A) (A)
                 (A) (A) (A) (A) (A) (A) (A) (A) (A) (A) (A) (A)
                 (A) (A) (A) (A) (A) (A)
 The electronic state is 1-A.
 Alpha  occ. eigenvalues --  -11.15024 -11.14893 -11.14757 -11.14477 -11.14467
 Alpha  occ. eigenvalues --  -11.14446 -11.14406 -11.14073 -11.14014 -11.13397
 Alpha  occ. eigenvalues --  -11.11523  -1.15370  -1.08248  -1.06426  -1.00374
 Alpha  occ. eigenvalues --   -0.97615  -0.92235  -0.87271  -0.84464  -0.79770
 Alpha  occ. eigenvalues --   -0.79571  -0.74688  -0.67421  -0.66094  -0.64190
 Alpha  occ. eigenvalues --   -0.62290  -0.60376  -0.58610  -0.57849  -0.57069
 Alpha  occ. eigenvalues --   -0.56066  -0.54718  -0.52279  -0.51619  -0.51136
 Alpha  occ. eigenvalues --   -0.49282  -0.48768  -0.47173  -0.46901  -0.46234
 Alpha  occ. eigenvalues --   -0.45981  -0.44431  -0.43504  -0.41937  -0.39963
 Alpha virt. eigenvalues --    0.25423   0.26609   0.27635   0.28577   0.29232
 Alpha virt. eigenvalues --    0.30775   0.31398   0.32174   0.33391   0.33628
 Alpha virt. eigenvalues --    0.34221   0.35158   0.35520   0.35782   0.36549
 Alpha virt. eigenvalues --    0.37494   0.38298   0.38582   0.40072   0.40173
 Alpha virt. eigenvalues --    0.40455   0.41001   0.41920   0.42753   0.44056
 Alpha virt. eigenvalues --    0.44447   0.44957   0.48445   0.48948   0.49558
 Alpha virt. eigenvalues --    0.51774   0.54856   0.55974   0.56237   0.88051
 Alpha virt. eigenvalues --    0.89324   0.90430   0.91164   0.92098   0.95573
 Alpha virt. eigenvalues --    0.96477   0.96770   0.98772   0.99288   0.99558
 Alpha virt. eigenvalues --    1.02883   1.04810   1.05164   1.06644   1.08548
 Alpha virt. eigenvalues --    1.09116   1.10382   1.12584   1.12922   1.15867
 Alpha virt. eigenvalues --    1.16595   1.20589   1.23444   1.25328   1.26580
 Alpha virt. eigenvalues --    1.28548   1.30208   1.33046   1.34079   1.35880
 Alpha virt. eigenvalues --    1.37161   1.37919   1.38954   1.39167   1.39341
 Alpha virt. eigenvalues --    1.40076   1.40666   1.41122   1.42558   1.43262
 Alpha virt. eigenvalues --    1.44336   1.45708   1.46912   1.47436   1.47782
 Alpha virt. eigenvalues --    1.48818   1.50049   1.50553   1.52399   1.54541
 Alpha virt. eigenvalues --    1.57444   1.60618   1.62465   1.66526   1.72859
 Alpha virt. eigenvalues --    1.78132   1.85922   1.98904   2.09069   2.24295
 Alpha virt. eigenvalues --    2.29613   2.38755   2.43599   2.52068   2.61522
 Alpha virt. eigenvalues --    2.70037   3.07216
          Condensed to atoms (all electrons):
              1          2          3          4          5          6
     1  C    5.387567   0.378846   0.379586   0.382837   0.249946  -0.045113
     2  H    0.378846   0.519154  -0.026503  -0.025314  -0.047902   0.003341
     3  H    0.379586  -0.026503   0.509168  -0.025506  -0.045074  -0.001629
     4  H    0.382837  -0.025314  -0.025506   0.509164  -0.042630  -0.001503
     5  C    0.249946  -0.047902  -0.045074  -0.042630   5.455362   0.387443
     6  H   -0.045113   0.003341  -0.001629  -0.001503   0.387443   0.517052
     7  H   -0.044168  -0.001728   0.003083  -0.001708   0.392619  -0.024668
     8  C   -0.093065  -0.001347  -0.003062   0.003981   0.254568  -0.046285
     9  H    0.003787  -0.000030  -0.000050  -0.000055  -0.043783  -0.001471
    10  H   -0.001986   0.002906   0.000161  -0.000054  -0.043924   0.003250
    11  C   -0.005695  -0.000100   0.001400   0.000017  -0.083400  -0.002926
    12  H    0.000101   0.000220  -0.001100   0.000033   0.000273   0.000119
    13  H   -0.000453   0.000091   0.000984  -0.000056  -0.003514   0.002683
    14  C    0.000120  -0.000020   0.000073   0.000000   0.004544  -0.000054
    15  H    0.000002   0.000000  -0.000001   0.000000  -0.000084  -0.000001
    16  H   -0.000006   0.000001   0.000000   0.000000   0.000003   0.000001
    17  C   -0.000006   0.000000  -0.000001   0.000000  -0.000075  -0.000054
    18  H   -0.000001   0.000000   0.000000   0.000000   0.000011  -0.000016
    19  C    0.000012  -0.000001  -0.000006   0.000000  -0.000285   0.000408
    20  H   -0.000004   0.000000  -0.000015   0.000000   0.000006  -0.000080
    21  H    0.000007   0.000000   0.000000   0.000000   0.000095   0.001797
    22  H    0.000000   0.000000   0.000000   0.000000   0.000007  -0.000001
    23  C    0.000000   0.000000   0.000000   0.000000  -0.000001   0.000000
    24  H    0.000000   0.000000   0.000000   0.000000   0.000000   0.000000
    25  H    0.000000   0.000000   0.000000   0.000000   0.000000   0.000000
    26  C    0.000000   0.000000   0.000000   0.000000   0.000000   0.000000
    27  H    0.000000   0.000000   0.000000   0.000000   0.000000   0.000000
    28  H    0.000000   0.000000   0.000000   0.000000   0.000000   0.000000
    29  C    0.000000   0.000000   0.000000   0.000000   0.000000   0.000000
    30  H    0.000000   0.000000   0.000000   0.000000   0.000000   0.000000
    31  H    0.000000   0.000000   0.000000   0.000000   0.000000   0.000000
    32  C    0.000000   0.000000   0.000000   0.000000   0.000000   0.000000
    33  H    0.000000   0.000000   0.000000   0.000000   0.000000   0.000000
    34  H    0.000000   0.000000   0.000000   0.000000   0.000000   0.000000
    35  H    0.000000   0.000000   0.000000   0.000000   0.000000   0.000000
              7          8          9         10         11         12
     1  C   -0.044168  -0.093065   0.003787  -0.001986  -0.005695   0.000101
     2  H   -0.001728  -0.001347  -0.000030   0.002906  -0.000100   0.000220
     3  H    0.003083  -0.003062  -0.000050   0.000161   0.001400  -0.001100
     4  H   -0.001708   0.003981  -0.000055  -0.000054   0.000017   0.000033
     5  C    0.392619   0.254568  -0.043783  -0.043924  -0.083400   0.000273
     6  H   -0.024668  -0.046285  -0.001471   0.003250  -0.002926   0.000119
     7  H    0.514172  -0.044943  -0.001677  -0.001309   0.004162  -0.000094
     8  C   -0.044943   5.516250   0.394608   0.388216   0.225059  -0.041620
     9  H   -0.001677   0.394608   0.509044  -0.024139  -0.046836   0.002670
    10  H   -0.001309   0.388216  -0.024139   0.510732  -0.044902  -0.003305
    11  C    0.004162   0.225059  -0.046836  -0.044902   5.568154   0.397840
    12  H   -0.000094  -0.041620   0.002670  -0.003305   0.397840   0.495433
    13  H    0.000125  -0.051167   0.000771   0.003131   0.394888  -0.025360
    14  C   -0.000079  -0.089364  -0.005813   0.001304   0.263935  -0.040184
    15  H    0.000001   0.004055   0.000091  -0.000084  -0.046557  -0.001983
    16  H    0.000001  -0.001496   0.000261   0.001256  -0.043913  -0.001358
    17  C    0.000002  -0.002457  -0.000447  -0.000123  -0.073230   0.003896
    18  H    0.000001   0.000916   0.001190  -0.000111  -0.000203  -0.000044
    19  C    0.000000  -0.001835  -0.002046   0.000136  -0.049561   0.000339
    20  H    0.000000   0.001140   0.000083  -0.000028  -0.013000   0.000051
    21  H   -0.000021  -0.001497  -0.000450   0.000129  -0.002006   0.000049
    22  H    0.000000  -0.000072   0.000056   0.000000   0.000466   0.000003
    23  C    0.000000   0.000149   0.000153  -0.000002   0.004185  -0.000058
    24  H    0.000000   0.000002  -0.000001   0.000000  -0.000078   0.000001
    25  H    0.000000  -0.000003  -0.000004   0.000000  -0.000120  -0.000002
    26  C    0.000000  -0.000009  -0.000012   0.000000   0.000097   0.000000
    27  H    0.000000   0.000000   0.000000   0.000000   0.000049   0.000000
    28  H    0.000000   0.000000  -0.000003   0.000000  -0.000043   0.000000
    29  C    0.000000   0.000000   0.000000   0.000000   0.000000   0.000000
    30  H    0.000000   0.000000   0.000000   0.000000   0.000000   0.000000
    31  H    0.000000   0.000000   0.000000   0.000000   0.000000   0.000000
    32  C    0.000000   0.000000   0.000000   0.000000   0.000000   0.000000
    33  H    0.000000   0.000000   0.000000   0.000000   0.000000   0.000000
    34  H    0.000000   0.000000   0.000000   0.000000   0.000000   0.000000
    35  H    0.000000   0.000000   0.000000   0.000000   0.000000   0.000000
             13         14         15         16         17         18
     1  C   -0.000453   0.000120   0.000002  -0.000006  -0.000006  -0.000001
     2  H    0.000091  -0.000020   0.000000   0.000001   0.000000   0.000000
     3  H    0.000984   0.000073  -0.000001   0.000000  -0.000001   0.000000
     4  H   -0.000056   0.000000   0.000000   0.000000   0.000000   0.000000
     5  C   -0.003514   0.004544  -0.000084   0.000003  -0.000075   0.000011
     6  H    0.002683  -0.000054  -0.000001   0.000001  -0.000054  -0.000016
     7  H    0.000125  -0.000079   0.000001   0.000001   0.000002   0.000001
     8  C   -0.051167  -0.089364   0.004055  -0.001496  -0.002457   0.000916
     9  H    0.000771  -0.005813   0.000091   0.000261  -0.000447   0.001190
    10  H    0.003131   0.001304  -0.000084   0.001256  -0.000123  -0.000111
    11  C    0.394888   0.263935  -0.046557  -0.043913  -0.073230  -0.000203
    12  H   -0.025360  -0.040184  -0.001983  -0.001358   0.003896  -0.000044
    13  H    0.512675  -0.044227  -0.000786   0.003033  -0.004577  -0.000001
    14  C   -0.044227   5.499733   0.395049   0.392228   0.249391  -0.040452
    15  H   -0.000786   0.395049   0.511094  -0.021531  -0.052756   0.002818
    16  H    0.003033   0.392228  -0.021531   0.503253  -0.047258  -0.002280
    17  C   -0.004577   0.249391  -0.052756  -0.047258   5.938573   0.423737
    18  H   -0.000001  -0.040452   0.002818  -0.002280   0.423737   0.510213
    19  C   -0.006404  -0.113159   0.002974   0.006475   0.026820  -0.073350
    20  H    0.001015  -0.019031   0.003142   0.000541  -0.082267   0.006854
    21  H   -0.001619   0.002467  -0.000159  -0.000220  -0.074222  -0.012838
    22  H    0.000237   0.008265  -0.000211  -0.000130  -0.077349   0.001032
    23  C   -0.000109  -0.078651  -0.002439  -0.000723   0.279906  -0.038149
    24  H   -0.000003   0.003857   0.000129  -0.000091  -0.050224  -0.000926
    25  H   -0.000008  -0.000741   0.002462   0.000071  -0.052511   0.003081
    26  C   -0.000001  -0.007884  -0.001392   0.000525  -0.076632  -0.002665
    27  H   -0.000001   0.000909   0.001082  -0.000663  -0.000806   0.000146
    28  H    0.000000  -0.000796   0.000155   0.000796  -0.003172   0.002248
    29  C    0.000000   0.000097  -0.000031   0.000017   0.004745  -0.000011
    30  H    0.000000  -0.000005   0.000000   0.000000   0.000015  -0.000001
    31  H    0.000000  -0.000005   0.000000  -0.000001  -0.000078   0.000016
    32  C    0.000000   0.000001   0.000001  -0.000001  -0.000106  -0.000001
    33  H    0.000000  -0.000002   0.000000   0.000000   0.000000   0.000000
    34  H    0.000000   0.000000   0.000000   0.000000   0.000001   0.000000
    35  H    0.000000   0.000000   0.000000   0.000000   0.000001  -0.000001
             19         20         21         22         23         24
     1  C    0.000012  -0.000004   0.000007   0.000000   0.000000   0.000000
     2  H   -0.000001   0.000000   0.000000   0.000000   0.000000   0.000000
     3  H   -0.000006  -0.000015   0.000000   0.000000   0.000000   0.000000
     4  H    0.000000   0.000000   0.000000   0.000000   0.000000   0.000000
     5  C   -0.000285   0.000006   0.000095   0.000007  -0.000001   0.000000
     6  H    0.000408  -0.000080   0.001797  -0.000001   0.000000   0.000000
     7  H    0.000000   0.000000  -0.000021   0.000000   0.000000   0.000000
     8  C   -0.001835   0.001140  -0.001497  -0.000072   0.000149   0.000002
     9  H   -0.002046   0.000083  -0.000450   0.000056   0.000153  -0.000001
    10  H    0.000136  -0.000028   0.000129   0.000000  -0.000002   0.000000
    11  C   -0.049561  -0.013000  -0.002006   0.000466   0.004185  -0.000078
    12  H    0.000339   0.000051   0.000049   0.000003  -0.000058   0.000001
    13  H   -0.006404   0.001015  -0.001619   0.000237  -0.000109  -0.000003
    14  C   -0.113159  -0.019031   0.002467   0.008265  -0.078651   0.003857
    15  H    0.002974   0.003142  -0.000159  -0.000211  -0.002439   0.000129
    16  H    0.006475   0.000541  -0.000220  -0.000130  -0.000723  -0.000091
    17  C    0.026820  -0.082267  -0.074222  -0.077349   0.279906  -0.050224
    18  H   -0.073350   0.006854  -0.012838   0.001032  -0.038149  -0.000926
    19  C    5.664854   0.410367   0.403453   0.413753  -0.127300  -0.002770
    20  H    0.410367   0.532800  -0.024089  -0.024695   0.002491  -0.000028
    21  H    0.403453  -0.024089   0.515696  -0.022376   0.008027  -0.000105
    22  H    0.413753  -0.024695  -0.022376   0.510943  -0.018168   0.004177
    23  C   -0.127300   0.002491   0.008027  -0.018168   5.479076   0.395942
    24  H   -0.002770  -0.000028  -0.000105   0.004177   0.395942   0.514178
    25  H    0.001434   0.001520  -0.000029   0.000144   0.390444  -0.024438
    26  C    0.008131  -0.000245  -0.000210   0.000626   0.241564  -0.046667
    27  H   -0.000177   0.000018   0.000000  -0.000009  -0.042978   0.002984
    28  H    0.000245  -0.000005  -0.000006   0.000013  -0.048427   0.000342
    29  C   -0.000168   0.000002   0.000002  -0.000032  -0.077228  -0.003678
    30  H    0.000001   0.000000   0.000000   0.000001  -0.001040   0.000209
    31  H   -0.000004   0.000000   0.000000  -0.000002  -0.001682   0.002553
    32  C    0.000001   0.000000   0.000000   0.000000   0.004699   0.000081
    33  H    0.000000   0.000000   0.000000   0.000000  -0.000061   0.000001
    34  H    0.000000   0.000000   0.000000   0.000000  -0.000089  -0.000001
    35  H    0.000000   0.000000   0.000000   0.000000  -0.000036   0.000002
             25         26         27         28         29         30
     1  C    0.000000   0.000000   0.000000   0.000000   0.000000   0.000000
     2  H    0.000000   0.000000   0.000000   0.000000   0.000000   0.000000
     3  H    0.000000   0.000000   0.000000   0.000000   0.000000   0.000000
     4  H    0.000000   0.000000   0.000000   0.000000   0.000000   0.000000
     5  C    0.000000   0.000000   0.000000   0.000000   0.000000   0.000000
     6  H    0.000000   0.000000   0.000000   0.000000   0.000000   0.000000
     7  H    0.000000   0.000000   0.000000   0.000000   0.000000   0.000000
     8  C   -0.000003  -0.000009   0.000000   0.000000   0.000000   0.000000
     9  H   -0.000004  -0.000012   0.000000  -0.000003   0.000000   0.000000
    10  H    0.000000   0.000000   0.000000   0.000000   0.000000   0.000000
    11  C   -0.000120   0.000097   0.000049  -0.000043   0.000000   0.000000
    12  H   -0.000002   0.000000   0.000000   0.000000   0.000000   0.000000
    13  H   -0.000008  -0.000001  -0.000001   0.000000   0.000000   0.000000
    14  C   -0.000741  -0.007884   0.000909  -0.000796   0.000097  -0.000005
    15  H    0.002462  -0.001392   0.001082   0.000155  -0.000031   0.000000
    16  H    0.000071   0.000525  -0.000663   0.000796   0.000017   0.000000
    17  C   -0.052511  -0.076632  -0.000806  -0.003172   0.004745   0.000015
    18  H    0.003081  -0.002665   0.000146   0.002248  -0.000011  -0.000001
    19  C    0.001434   0.008131  -0.000177   0.000245  -0.000168   0.000001
    20  H    0.001520  -0.000245   0.000018  -0.000005   0.000002   0.000000
    21  H   -0.000029  -0.000210   0.000000  -0.000006   0.000002   0.000000
    22  H    0.000144   0.000626  -0.000009   0.000013  -0.000032   0.000001
    23  C    0.390444   0.241564  -0.042978  -0.048427  -0.077228  -0.001040
    24  H   -0.024438  -0.046667   0.002984   0.000342  -0.003678   0.000209
    25  H    0.519238  -0.045518  -0.002789   0.003134   0.000498   0.001293
    26  C   -0.045518   5.494582   0.388280   0.391183   0.250564  -0.047860
    27  H   -0.002789   0.388280   0.512490  -0.025460  -0.045840  -0.001365
    28  H    0.003134   0.391183  -0.025460   0.517383  -0.046485   0.003305
    29  C    0.000498   0.250564  -0.045840  -0.046485   5.454187   0.389350
    30  H    0.001293  -0.047860  -0.001365   0.003305   0.389350   0.520828
    31  H    0.000072  -0.046684   0.003239  -0.001995   0.389052  -0.026024
    32  C   -0.000085  -0.089350  -0.001275  -0.000527   0.253135  -0.044104
    33  H    0.000006  -0.001861   0.002748   0.000034  -0.047042  -0.001884
    34  H    0.000001   0.004196  -0.000011  -0.000048  -0.043816  -0.001538
    35  H    0.000000  -0.001817   0.000028   0.002398  -0.047078   0.003343
             31         32         33         34         35
     1  C    0.000000   0.000000   0.000000   0.000000   0.000000
     2  H    0.000000   0.000000   0.000000   0.000000   0.000000
     3  H    0.000000   0.000000   0.000000   0.000000   0.000000
     4  H    0.000000   0.000000   0.000000   0.000000   0.000000
     5  C    0.000000   0.000000   0.000000   0.000000   0.000000
     6  H    0.000000   0.000000   0.000000   0.000000   0.000000
     7  H    0.000000   0.000000   0.000000   0.000000   0.000000
     8  C    0.000000   0.000000   0.000000   0.000000   0.000000
     9  H    0.000000   0.000000   0.000000   0.000000   0.000000
    10  H    0.000000   0.000000   0.000000   0.000000   0.000000
    11  C    0.000000   0.000000   0.000000   0.000000   0.000000
    12  H    0.000000   0.000000   0.000000   0.000000   0.000000
    13  H    0.000000   0.000000   0.000000   0.000000   0.000000
    14  C   -0.000005   0.000001  -0.000002   0.000000   0.000000
    15  H    0.000000   0.000001   0.000000   0.000000   0.000000
    16  H   -0.000001  -0.000001   0.000000   0.000000   0.000000
    17  C   -0.000078  -0.000106   0.000000   0.000001   0.000001
    18  H    0.000016  -0.000001   0.000000   0.000000  -0.000001
    19  C   -0.000004   0.000001   0.000000   0.000000   0.000000
    20  H    0.000000   0.000000   0.000000   0.000000   0.000000
    21  H    0.000000   0.000000   0.000000   0.000000   0.000000
    22  H   -0.000002   0.000000   0.000000   0.000000   0.000000
    23  C   -0.001682   0.004699  -0.000061  -0.000089  -0.000036
    24  H    0.002553   0.000081   0.000001  -0.000001   0.000002
    25  H    0.000072  -0.000085   0.000006   0.000001   0.000000
    26  C   -0.046684  -0.089350  -0.001861   0.004196  -0.001817
    27  H    0.003239  -0.001275   0.002748  -0.000011   0.000028
    28  H   -0.001995  -0.000527   0.000034  -0.000048   0.002398
    29  C    0.389052   0.253135  -0.047042  -0.043816  -0.047078
    30  H   -0.026024  -0.044104  -0.001884  -0.001538   0.003343
    31  H    0.519922  -0.043827   0.003312  -0.001531  -0.001853
    32  C   -0.043827   5.369108   0.379501   0.381237   0.379621
    33  H    0.003312   0.379501   0.518811  -0.025482  -0.026828
    34  H   -0.001531   0.381237  -0.025482   0.514501  -0.025673
    35  H   -0.001853   0.379621  -0.026828  -0.025673   0.519187
 Mulliken atomic charges:
              1
     1  C   -0.592313
     2  H    0.198386
     3  H    0.208493
     4  H    0.200794
     5  C   -0.434207
     6  H    0.207707
     7  H    0.206229
     8  C   -0.410725
     9  H    0.214103
    10  H    0.208747
    11  C   -0.447681
    12  H    0.214081
    13  H    0.218653
    14  C   -0.381504
    15  H    0.204959
    16  H    0.211210
    17  C   -0.328737
    18  H    0.218787
    19  C   -0.562334
    20  H    0.203456
    21  H    0.208123
    22  H    0.203322
    23  C   -0.369496
    24  H    0.204551
    25  H    0.202850
    26  C   -0.410940
    27  H    0.209401
    28  H    0.205731
    29  C   -0.430241
    30  H    0.205477
    31  H    0.205521
    32  C   -0.588107
    33  H    0.198745
    34  H    0.198254
    35  H    0.198706
 Sum of Mulliken atomic charges =   0.00000
 Mulliken charges with hydrogens summed into heavy atoms:
              1
     1  C    0.015359
     5  C   -0.020270
     8  C    0.012125
    11  C   -0.014947
    14  C    0.034666
    17  C   -0.109950
    19  C    0.052567
    23  C    0.037905
    26  C    0.004191
    29  C   -0.019243
    32  C    0.007598
 Sum of Mulliken charges with hydrogens summed into heavy atoms =   0.00000
 Electronic spatial extent (au):  <R**2>=           3572.4577
 Charge=              0.0000 electrons
 Dipole moment (field-independent basis, Debye):
    X=              0.0216    Y=             -0.0307    Z=             -0.0247  Tot=              0.0449
 Quadrupole moment (field-independent basis, Debye-Ang):
   XX=            -78.6125   YY=            -76.8986   ZZ=            -74.9935
   XY=             -0.9075   XZ=             -0.3498   YZ=             -0.0120
 Traceless Quadrupole moment (field-independent basis, Debye-Ang):
   XX=             -1.7776   YY=             -0.0637   ZZ=              1.8413
   XY=             -0.9075   XZ=             -0.3498   YZ=             -0.0120
 Octapole moment (field-independent basis, Debye-Ang**2):
  XXX=              1.9038  YYY=             -3.4272  ZZZ=              0.3591  XYY=              1.2716
  XXY=              5.7628  XXZ=             -1.0648  XZZ=             -1.8705  YZZ=              0.1648
  YYZ=             -0.7818  XYZ=              1.4315
 Hexadecapole moment (field-independent basis, Debye-Ang**3):
 XXXX=          -4379.5286 YYYY=           -483.6976 ZZZZ=           -241.0960 XXXY=            -13.4351
 XXXZ=            -14.9401 YYYX=            -13.1431 YYYZ=             -1.2314 ZZZX=             -1.9021
 ZZZY=             -0.0941 XXYY=           -805.9988 XXZZ=           -755.2461 YYZZ=           -119.2749
 XXYZ=              1.9773 YYXZ=             -0.5229 ZZXY=              0.8499
 N-N= 6.631765333364D+02 E-N=-2.321639690882D+03  KE= 4.290370480792D+02
 1\1\GINC-NODE02\SP\RHF\3-21G\C11H24\SC4102.04\26-Jun-2022\0\\# hf/3-21
 g geom=connectivity\\mol_8\\0,1\C,0,0.01045743,-3.73327533,-0.31938068
 \H,0,0.36711186,-4.74208534,-0.31938068\H,0,0.36713027,-3.22887714,-1.
 19303218\H,0,-1.05954257,-3.73326215,-0.31938068\C,0,0.52379965,-3.007
 31906,0.93802429\H,0,0.16874331,-1.99794597,0.93704677\H,0,0.16553054,
 -3.51058749,1.81167418\C,0,2.06379705,-3.00977541,0.93943296\H,0,2.420
 47007,-2.50505133,1.81289616\H,0,2.41885328,-4.01914811,0.9407867\C,0,
 2.5794358,-2.28591514,-0.31824067\H,0,2.60878266,-2.97269758,-1.138221
 55\H,0,1.92437811,-1.47403779,-0.55626294\C,0,3.99563006,-1.74209825,-
 0.05318029\H,0,4.3823684,-1.30265606,-0.94884988\H,0,4.63366436,-2.543
 85587,0.25503547\C,0,3.93691734,-0.67681832,1.0573743\H,0,3.94652196,-
 1.15731102,2.01337352\C,0,2.84590855,0.01906362,0.93308372\H,0,2.52897
 056,0.00594597,-0.08881561\H,0,2.08056974,-0.40447078,1.54934268\H,0,3
 .03020159,1.02847983,1.23642344\C,0,5.15680691,0.25565898,0.9392408\H,
 0,5.1529207,0.95263493,1.75109635\H,0,5.1105179,0.78779893,0.01210305\
 C,0,6.44891075,-0.58087201,0.98702749\H,0,6.63105082,-1.01112735,0.024
 42407\H,0,6.34232439,-1.36069889,1.71187877\C,0,7.63227317,0.32421097,
 1.37699952\H,0,7.69441412,1.14459474,0.69288771\H,0,7.48419648,0.69733
 007,2.36884399\C,0,8.93931828,-0.4884582,1.32406652\H,0,9.09089824,-0.
 85583731,0.33060987\H,0,9.76068043,0.1386088,1.60164747\H,0,8.87451748
 ,-1.31279265,2.00316414\\Version=EM64L-G09RevC.01\State=1-A\HF=-428.07
 87612\RMSD=6.877e-09\Dipole=-0.0030465,-0.0163809,0.0058843\Quadrupole
 =-1.591066,0.352959,1.2381071,0.0463968,-0.3428982,-0.3466363\PG=C01 [
 X(C11H24)]\\@


 KNIGHT- SIRE, I'VE JUST RETURNED FROM THE FRONT
 KING-   HOW GOES THE BATTLE                    
 KNIGHT- THE SITUATION IS QUITE FLUID           
 KING-   WHAT DOES *THAT* MEAN                  
 KNIGHT- WE'RE UP THE CREEK                     
                THE WIZARD OF ID                
 Job cpu time:  0 days  0 hours  0 minutes 12.3 seconds.
 File lengths (MBytes):  RWF=     16 Int=      0 D2E=      0 Chk=      3 Scr=      1
 Normal termination of Gaussian 09 at Sun Jun 26 00:45:18 2022.
