 Entering Gaussian System, Link 0=g09
 Input=/home/iiit/sc4102.09/Problem1/b.com
 Output=/home/iiit/sc4102.09/Problem1/b.log
 Initial command:
 /global/g09-revC/l1.exe /scratch/Gau-42484.inp -scrdir=/scratch/
 Entering Link 1 = /global/g09-revC/l1.exe PID=     42486.
  
 Copyright (c) 1988,1990,1992,1993,1995,1998,2003,2009,2011,
            Gaussian, Inc.  All Rights Reserved.
  
 This is part of the Gaussian(R) 09 program.  It is based on
 the Gaussian(R) 03 system (copyright 2003, Gaussian, Inc.),
 the Gaussian(R) 98 system (copyright 1998, Gaussian, Inc.),
 the Gaussian(R) 94 system (copyright 1995, Gaussian, Inc.),
 the Gaussian 92(TM) system (copyright 1992, Gaussian, Inc.),
 the Gaussian 90(TM) system (copyright 1990, Gaussian, Inc.),
 the Gaussian 88(TM) system (copyright 1988, Gaussian, Inc.),
 the Gaussian 86(TM) system (copyright 1986, Carnegie Mellon
 University), and the Gaussian 82(TM) system (copyright 1983,
 Carnegie Mellon University). Gaussian is a federally registered
 trademark of Gaussian, Inc.
  
 This software contains proprietary and confidential information,
 including trade secrets, belonging to Gaussian, Inc.
  
 This software is provided under written license and may be
 used, copied, transmitted, or stored only in accord with that
 written license.
  
 The following legend is applicable only to US Government
 contracts under FAR:
  
                    RESTRICTED RIGHTS LEGEND
  
 Use, reproduction and disclosure by the US Government is
 subject to restrictions as set forth in subparagraphs (a)
 and (c) of the Commercial Computer Software - Restricted
 Rights clause in FAR 52.227-19.
  
 Gaussian, Inc.
 340 Quinnipiac St., Bldg. 40, Wallingford CT 06492
  
  
 ---------------------------------------------------------------
 Warning -- This program may not be used in any manner that
 competes with the business of Gaussian, Inc. or will provide
 assistance to any competitor of Gaussian, Inc.  The licensee
 of this program is prohibited from giving any competitor of
 Gaussian, Inc. access to this program.  By using this program,
 the user acknowledges that Gaussian, Inc. is engaged in the
 business of creating and licensing software in the field of
 computational chemistry and represents and warrants to the
 licensee that it is not a competitor of Gaussian, Inc. and that
 it will not use this program in any manner prohibited above.
 ---------------------------------------------------------------
  

 Cite this work as:
 Gaussian 09, Revision C.01,
 M. J. Frisch, G. W. Trucks, H. B. Schlegel, G. E. Scuseria, 
 M. A. Robb, J. R. Cheeseman, G. Scalmani, V. Barone, B. Mennucci, 
 G. A. Petersson, H. Nakatsuji, M. Caricato, X. Li, H. P. Hratchian, 
 A. F. Izmaylov, J. Bloino, G. Zheng, J. L. Sonnenberg, M. Hada, 
 M. Ehara, K. Toyota, R. Fukuda, J. Hasegawa, M. Ishida, T. Nakajima, 
 Y. Honda, O. Kitao, H. Nakai, T. Vreven, J. A. Montgomery, Jr., 
 J. E. Peralta, F. Ogliaro, M. Bearpark, J. J. Heyd, E. Brothers, 
 K. N. Kudin, V. N. Staroverov, T. Keith, R. Kobayashi, J. Normand, 
 K. Raghavachari, A. Rendell, J. C. Burant, S. S. Iyengar, J. Tomasi, 
 M. Cossi, N. Rega, J. M. Millam, M. Klene, J. E. Knox, J. B. Cross, 
 V. Bakken, C. Adamo, J. Jaramillo, R. Gomperts, R. E. Stratmann, 
 O. Yazyev, A. J. Austin, R. Cammi, C. Pomelli, J. W. Ochterski, 
 R. L. Martin, K. Morokuma, V. G. Zakrzewski, G. A. Voth, 
 P. Salvador, J. J. Dannenberg, S. Dapprich, A. D. Daniels, 
 O. Farkas, J. B. Foresman, J. V. Ortiz, J. Cioslowski, 
 and D. J. Fox, Gaussian, Inc., Wallingford CT, 2010.
 
 ******************************************
 Gaussian 09:  EM64L-G09RevC.01 23-Sep-2011
                25-Jun-2022 
 ******************************************
 %chk=b.chk
 ----------------------------
 # hf/3-21g geom=connectivity
 ----------------------------
 1/38=1,57=2/1;
 2/12=2,17=6,18=5,40=1/2;
 3/5=5,11=9,16=1,25=1,30=1/1,2,3;
 4//1;
 5/5=2,38=5/2;
 6/7=2,8=2,9=2,10=2,28=1/1;
 99/5=1,9=1/99;
 -
 b
 -
 Charge =  0 Multiplicity = 1
 Symbolic Z-Matrix:
 C                    -1.91641  -0.47401   0. 
 C                    -0.39455  -0.47401   0. 
 C                     0.07422   0.97386   0. 
 C                    -1.15352   1.86343  -0.13319 
 C                    -2.38562   0.97031  -0.10359 
 H                    -2.30837  -1.07645  -0.85751 
 H                    -2.30653  -0.94442   0.9375 
 H                    -0.00593  -1.0086   -0.90328 
 H                    -0.00119  -1.01474   0.89684 
 H                     0.62115   1.20555   0.94859 
 H                    -1.1892    2.6095    0.6998 
 H                    -3.038     1.23212   0.76707 
 H                    -2.99736   1.11794  -1.02879 
 C                    -1.09969   2.65824  -1.45113 
 H                    -1.9716    3.27306  -1.53272 
 H                    -0.22582   3.27564  -1.45986 
 H                    -1.06423   1.97826  -2.27652 
 C                     1.05432   1.22602  -1.16079 
 H                     1.34324   2.25626  -1.16621 
 H                     0.5786    0.98412  -2.08819 
 C                     2.30325   0.34357  -0.97899 
 H                     2.12405  -0.62063  -1.40688 
 H                     2.51582   0.23691   0.06424 
 C                     3.50416   1.00238  -1.68283 
 H                     3.72124   1.93999  -1.21521 
 H                     3.26845   1.16418  -2.71393 
 C                     4.73186   0.07888  -1.5757 
 H                     4.95975  -0.0933   -0.54452 
 H                     4.51926  -0.85406  -2.05458 
 C                     5.93754   0.7459   -2.26345 
 H                     6.15233   1.67718  -1.78233 
 H                     6.78966   0.1027   -2.19208 
 H                     5.70835   0.92127  -3.2938 
 
                          Input orientation:                          
 ---------------------------------------------------------------------
 Center     Atomic      Atomic             Coordinates (Angstroms)
 Number     Number       Type             X           Y           Z
 ---------------------------------------------------------------------
      1          6           0       -1.916412   -0.474006    0.000000
      2          6           0       -0.394554   -0.474006    0.000000
      3          6           0        0.074219    0.973859    0.000000
      4          6           0       -1.153521    1.863427   -0.133186
      5          6           0       -2.385618    0.970314   -0.103590
      6          1           0       -2.308374   -1.076451   -0.857508
      7          1           0       -2.306527   -0.944417    0.937504
      8          1           0       -0.005927   -1.008604   -0.903280
      9          1           0       -0.001187   -1.014738    0.896837
     10          1           0        0.621154    1.205552    0.948588
     11          1           0       -1.189198    2.609497    0.699798
     12          1           0       -3.037996    1.232116    0.767074
     13          1           0       -2.997364    1.117936   -1.028793
     14          6           0       -1.099686    2.658242   -1.451128
     15          1           0       -1.971603    3.273063   -1.532722
     16          1           0       -0.225821    3.275643   -1.459855
     17          1           0       -1.064231    1.978262   -2.276518
     18          6           0        1.054317    1.226022   -1.160785
     19          1           0        1.343245    2.256260   -1.166213
     20          1           0        0.578600    0.984118   -2.088188
     21          6           0        2.303250    0.343573   -0.978992
     22          1           0        2.124049   -0.620635   -1.406882
     23          1           0        2.515821    0.236907    0.064242
     24          6           0        3.504157    1.002384   -1.682833
     25          1           0        3.721243    1.939986   -1.215206
     26          1           0        3.268453    1.164184   -2.713932
     27          6           0        4.731860    0.078875   -1.575697
     28          1           0        4.959754   -0.093298   -0.544523
     29          1           0        4.519264   -0.854064   -2.054580
     30          6           0        5.937543    0.745902   -2.263449
     31          1           0        6.152333    1.677184   -1.782326
     32          1           0        6.789659    0.102704   -2.192078
     33          1           0        5.708351    0.921272   -3.293797
 ---------------------------------------------------------------------
                    Distance matrix (angstroms):
                    1          2          3          4          5
     1  C    0.000000
     2  C    1.521858   0.000000
     3  C    2.461488   1.521861   0.000000
     4  C    2.462384   2.461171   1.521977   0.000000
     5  C    1.522152   2.461936   2.462020   1.522035   0.000000
     6  H    1.118881   2.181964   3.258196   3.240557   2.182569
     7  H    1.119102   2.180789   3.197913   3.218662   2.180900
     8  H    2.179831   1.119259   2.180022   3.187253   3.196647
     9  H    2.182841   1.118680   2.182778   3.266903   3.259877
    10  H    3.187472   2.179999   1.119213   2.180024   3.194228
    11  H    3.244464   3.260240   2.182029   1.118819   2.182607
    12  H    2.181102   3.238370   3.215740   2.181804   1.119014
    13  H    2.182006   3.219831   3.242498   2.181198   1.118940
    14  C    3.547364   3.523346   2.514155   1.540000   2.513679
    15  H    4.048803   4.344749   3.438163   2.148263   2.741620
    16  H    4.364532   4.027346   2.742155   2.148263   3.437836
    17  H    3.452878   3.412422   2.736317   2.148263   2.735625
    18  C    3.614242   2.517289   1.540000   2.517299   3.607797
    19  H    4.409055   3.440109   2.148263   2.730440   4.085002
    20  H    3.565352   2.726478   2.148263   2.755986   3.567269
    21  C    4.408221   2.984126   2.514809   3.869704   4.810885
    22  H    4.280904   2.888629   2.953562   4.305268   4.956489
    23  H    4.489344   2.996632   2.551204   4.018534   4.958846
    24  C    5.864659   4.495731   3.820630   4.983650   6.097908
    25  H    6.251978   4.923806   3.963699   4.993991   6.282491
    26  H    6.077163   4.844245   4.195805   5.167498   6.230568
    27  C    6.854780   5.391532   4.997743   6.316895   7.322585
    28  H    6.908191   5.395374   5.030287   6.431960   7.435064
    29  H    6.766363   5.339602   5.226951   6.577005   7.403520
    30  C    8.264138   6.834239   6.289176   7.487995   8.601765
    31  H    8.538674   7.118008   6.372976   7.491986   8.730088
    32  H    8.996303   7.533307   7.117672   8.392454   9.449880
    33  H    8.422168   7.073991   6.526508   7.613304   8.700124
                    6          7          8          9         10
     6  H    0.000000
     7  H    1.799862   0.000000
     8  H    2.303901   2.947095   0.000000
     9  H    2.899077   2.306771   1.800134   0.000000
    10  H    4.129365   3.632328   2.953834   2.306442   0.000000
    11  H    4.154993   3.732992   4.130453   3.819067   2.304416
    12  H    2.915664   2.302475   4.123633   3.779868   3.663746
    13  H    2.306378   2.932044   3.672414   4.151316   4.124486
    14  C    3.970043   4.487893   3.865515   4.495601   3.290933
    15  H    4.414476   4.899115   4.753183   5.307592   4.141725
    16  H    4.862157   5.280679   4.325842   4.900187   3.286829
    17  H    3.590648   4.518329   3.453572   4.489799   3.720069
    18  C    4.086691   4.517620   2.486761   3.220078   2.153487
    19  H    4.953441   5.290633   3.542420   4.094277   2.469370
    20  H    3.754349   4.604130   2.390945   3.638949   3.045136
    21  C    4.826832   5.155766   2.677016   3.267136   2.699633
    22  H    4.489538   5.023045   2.222821   3.158966   3.337947
    23  H    5.084032   5.041146   2.974325   2.931750   2.304366
    24  C    6.228020   6.664852   4.119765   4.796969   3.908626
    25  H    6.751527   7.020537   4.762696   5.200731   3.851226
    26  H    6.290290   6.989963   4.326781   5.336281   4.519287
    27  C    7.170458   7.543354   4.907278   5.450793   4.953717
    28  H    7.340997   7.464560   5.062063   5.247619   4.768631
    29  H    6.935350   7.453331   4.671908   5.401032   5.334444
    30  C    8.561121   9.003775   6.344540   6.953832   6.228359
    31  H    8.945466   9.264048   6.775718   7.231194   6.186620
    32  H    9.270690   9.676329   7.005426   7.543584   7.009316
    33  H    8.613610   9.253268   6.487832   7.342232   6.630099
                   11         12         13         14         15
    11  H    0.000000
    12  H    2.306460   0.000000
    13  H    2.912429   1.799952   0.000000
    14  C    2.153339   3.272812   2.480341   0.000000
    15  H    2.456954   3.254492   2.439406   1.070000   0.000000
    16  H    2.456816   4.128383   3.538780   1.070000   1.747303
    17  H    3.045084   3.703504   2.456417   1.070000   1.747303
    18  C    3.226318   4.523682   4.055271   2.602937   3.672179
    19  H    3.165444   4.897115   4.489493   2.492123   3.486607
    20  H    3.679651   4.614519   3.731989   2.454625   3.471505
    21  C    4.488868   5.689215   5.357110   4.142533   5.211803
    22  H    5.084236   5.899617   5.421665   4.598420   5.652529
    23  H    4.445253   5.685885   5.689125   4.607722   5.648496
    24  C    5.503392   6.989605   6.535357   4.898054   5.929794
    25  H    5.312994   7.079394   6.771277   4.879847   5.855459
    26  H    5.797683   7.203701   6.488628   4.786180   5.770685
    27  C    6.829410   8.196902   7.817906   6.377741   7.425705
    28  H    6.831036   8.212248   8.063333   6.716378   7.768696
    29  H    7.222837   8.332229   7.838413   6.653800   7.709530
    30  C    7.940041   9.485819   9.027477   7.337541   8.335172
    31  H    7.805653   9.547758   9.197692   7.325569   8.282962
    32  H    8.849244  10.325452   9.908065   8.325957   9.340537
    33  H    8.147090   9.648102   8.997688   7.263736   8.222773
                   16         17         18         19         20
    16  H    0.000000
    17  H    1.747303   0.000000
    18  C    2.434983   2.509775   0.000000
    19  H    1.894026   2.665708   1.070000   0.000000
    20  H    2.508582   1.929426   1.070000   1.747303   0.000000
    21  C    3.901854   3.961781   1.540000   2.148263   2.148263
    22  H    4.550350   4.204243   2.148263   2.990669   2.329769
    23  H    4.367309   4.618251   2.148263   2.639459   2.990669
    24  C    4.373805   4.709030   2.514809   2.551205   2.953563
    25  H    4.174104   4.901898   2.761376   2.399438   3.398821
    26  H    4.270939   4.430147   2.705270   2.700831   2.767542
    27  C    5.900114   6.139502   3.874586   4.048629   4.281551
    28  H    6.251224   6.601482   4.168072   4.357300   4.768463
    29  H    6.318545   6.264722   4.139020   4.533256   4.348434
    30  C    6.710619   7.109410   5.029143   4.959101   5.367098
    31  H    6.583306   7.239729   5.155544   4.882854   5.624980
    32  H    7.734382   8.075174   5.934607   5.945892   6.274149
    33  H    6.642349   6.929642   5.128610   5.036165   5.269895
                   21         22         23         24         25
    21  C    0.000000
    22  H    1.070000   0.000000
    23  H    1.070000   1.747303   0.000000
    24  C    1.540000   2.148263   2.148263   0.000000
    25  H    2.148263   3.023995   2.447551   1.070000   0.000000
    26  H    2.148263   2.490706   3.023995   1.070000   1.747303
    27  C    2.514809   2.705270   2.761377   1.540000   2.148263
    28  H    2.727019   3.010477   2.540166   2.148263   2.473453
    29  H    2.738967   2.492199   3.113423   2.148263   3.024583
    30  C    3.875536   4.140515   4.169581   2.514809   2.727020
    31  H    4.152024   4.652741   4.325325   2.734610   2.510158
    32  H    4.653758   4.786196   4.834737   3.444311   3.707434
    33  H    4.157736   4.334183   4.683698   2.731347   3.050724
                   26         27         28         29         30
    26  H    0.000000
    27  C    2.148263   0.000000
    28  H    3.024582   1.070000   0.000000
    29  H    2.464264   1.070000   1.747303   0.000000
    30  C    2.738966   1.540000   2.148263   2.148263   0.000000
    31  H    3.073731   2.148263   2.467592   3.024608   1.070000
    32  H    3.714562   2.148263   2.470102   2.467591   1.070000
    33  H    2.519594   2.148263   3.024608   2.470102   1.070000
                   31         32         33
    31  H    0.000000
    32  H    1.747303   0.000000
    33  H    1.747303   1.747303   0.000000
 Stoichiometry    C11H22
 Framework group  C1[X(C11H22)]
 Deg. of freedom    93
 Full point group                 C1      NOp   1
 Largest Abelian subgroup         C1      NOp   1
 Largest concise Abelian subgroup C1      NOp   1
                         Standard orientation:                         
 ---------------------------------------------------------------------
 Center     Atomic      Atomic             Coordinates (Angstroms)
 Number     Number       Type             X           Y           Z
 ---------------------------------------------------------------------
      1          6           0       -3.007996   -1.404152   -0.389041
      2          6           0       -1.532483   -1.467387   -0.021733
      3          6           0       -1.153169   -0.142931    0.624795
      4          6           0       -2.357837    0.783036    0.536614
      5          6           0       -3.513120   -0.005714   -0.063207
      6          1           0       -3.151505   -1.630036   -1.475446
      7          1           0       -3.586184   -2.171190    0.185189
      8          1           0       -0.911743   -1.645806   -0.935838
      9          1           0       -1.337664   -2.317218    0.679179
     10          1           0       -0.861954   -0.301298    1.693791
     11          1           0       -2.630533    1.169071    1.550699
     12          1           0       -4.367608   -0.057491    0.657460
     13          1           0       -3.892466    0.498787   -0.987113
     14          6           0       -2.031482    2.005817   -0.340825
     15          1           0       -2.889243    2.642900   -0.398024
     16          1           0       -1.214200    2.545816    0.089699
     17          1           0       -1.764249    1.678329   -1.323800
     18          6           0        0.061806    0.479561   -0.087902
     19          1           0        0.289737    1.425848    0.356495
     20          1           0       -0.164900    0.617658   -1.124451
     21          6           0        1.275019   -0.458649    0.051657
     22          1           0        1.253754   -1.188003   -0.730961
     23          1           0        1.236970   -0.952185    1.000274
     24          6           0        2.573600    0.363188   -0.047699
     25          1           0        2.623467    1.051581    0.769938
     26          1           0        2.583452    0.904376   -0.970693
     27          6           0        3.786229   -0.584650    0.004583
     28          1           0        3.769325   -1.135169    0.921939
     29          1           0        3.743166   -1.264739   -0.820356
     30          6           0        5.085163    0.238667   -0.076148
     31          1           0        5.129903    0.916299    0.750722
     32          1           0        5.927648   -0.420154   -0.043360
     33          1           0        5.100445    0.791902   -0.991898
 ---------------------------------------------------------------------
 Rotational constants (GHZ):      2.6124132      0.4062275      0.3676445
 Standard basis: 3-21G (6D, 7F)
 There are   143 symmetry adapted basis functions of A   symmetry.
 Integral buffers will be    131072 words long.
 Raffenetti 1 integral format.
 Two-electron integral symmetry is turned on.
   143 basis functions,   231 primitive gaussians,   143 cartesian basis functions
    44 alpha electrons       44 beta electrons
       nuclear repulsion energy       649.6008658549 Hartrees.
 NAtoms=   33 NActive=   33 NUniq=   33 SFac= 1.00D+00 NAtFMM=   60 NAOKFM=F Big=F
 One-electron integrals computed using PRISM.
 NBasis=   143 RedAO= T  NBF=   143
 NBsUse=   143 1.00D-06 NBFU=   143
 Harris functional with IExCor=  205 diagonalized for initial guess.
 ExpMin= 1.83D-01 ExpMax= 1.72D+02 ExpMxC= 1.72D+02 IAcc=1 IRadAn=         1 AccDes= 0.00D+00
 HarFok:  IExCor=  205 AccDes= 0.00D+00 IRadAn=         1 IDoV= 1
 ScaDFX=  1.000000  1.000000  1.000000  1.000000
 FoFCou: FMM=F IPFlag=           0 FMFlag=      100000 FMFlg1=           0
         NFxFlg=           0 DoJE=T BraDBF=F KetDBF=T FulRan=T
         Omega=  0.000000  0.000000  1.000000  0.000000  0.000000 ICntrl=     500 IOpCl=  0
         NMat0=    1 NMatS0=    1 NMatT0=    0 NMatD0=    1 NMtDS0=    0 NMtDT0=    0
         I1Cent=           4 NGrid=           0.
 Petite list used in FoFCou.
 Initial guess orbital symmetries:
       Occupied  (A) (A) (A) (A) (A) (A) (A) (A) (A) (A) (A) (A)
                 (A) (A) (A) (A) (A) (A) (A) (A) (A) (A) (A) (A)
                 (A) (A) (A) (A) (A) (A) (A) (A) (A) (A) (A) (A)
                 (A) (A) (A) (A) (A) (A) (A) (A)
       Virtual   (A) (A) (A) (A) (A) (A) (A) (A) (A) (A) (A) (A)
                 (A) (A) (A) (A) (A) (A) (A) (A) (A) (A) (A) (A)
                 (A) (A) (A) (A) (A) (A) (A) (A) (A) (A) (A) (A)
                 (A) (A) (A) (A) (A) (A) (A) (A) (A) (A) (A) (A)
                 (A) (A) (A) (A) (A) (A) (A) (A) (A) (A) (A) (A)
                 (A) (A) (A) (A) (A) (A) (A) (A) (A) (A) (A) (A)
                 (A) (A) (A) (A) (A) (A) (A) (A) (A) (A) (A) (A)
                 (A) (A) (A) (A) (A) (A) (A) (A) (A) (A) (A) (A)
                 (A) (A) (A)
 The electronic state of the initial guess is 1-A.
 Requested convergence on RMS density matrix=1.00D-08 within 128 cycles.
 Requested convergence on MAX density matrix=1.00D-06.
 Requested convergence on             energy=1.00D-06.
 No special actions if energy rises.
 Integral accuracy reduced to 1.0D-05 until final iterations.
 Initial convergence to 1.0D-05 achieved.  Increase integral accuracy.
 SCF Done:  E(RHF) =  -426.966123309     A.U. after   11 cycles
             Convg  =    0.7164D-08             -V/T =  2.0002

 **********************************************************************

            Population analysis using the SCF density.

 **********************************************************************

 Orbital symmetries:
       Occupied  (A) (A) (A) (A) (A) (A) (A) (A) (A) (A) (A) (A)
                 (A) (A) (A) (A) (A) (A) (A) (A) (A) (A) (A) (A)
                 (A) (A) (A) (A) (A) (A) (A) (A) (A) (A) (A) (A)
                 (A) (A) (A) (A) (A) (A) (A) (A)
       Virtual   (A) (A) (A) (A) (A) (A) (A) (A) (A) (A) (A) (A)
                 (A) (A) (A) (A) (A) (A) (A) (A) (A) (A) (A) (A)
                 (A) (A) (A) (A) (A) (A) (A) (A) (A) (A) (A) (A)
                 (A) (A) (A) (A) (A) (A) (A) (A) (A) (A) (A) (A)
                 (A) (A) (A) (A) (A) (A) (A) (A) (A) (A) (A) (A)
                 (A) (A) (A) (A) (A) (A) (A) (A) (A) (A) (A) (A)
                 (A) (A) (A) (A) (A) (A) (A) (A) (A) (A) (A) (A)
                 (A) (A) (A) (A) (A) (A) (A) (A) (A) (A) (A) (A)
                 (A) (A) (A)
 The electronic state is 1-A.
 Alpha  occ. eigenvalues --  -11.15734 -11.15600 -11.15575 -11.15411 -11.15364
 Alpha  occ. eigenvalues --  -11.14923 -11.14754 -11.14442 -11.14351 -11.14075
 Alpha  occ. eigenvalues --  -11.13716  -1.14042  -1.08319  -1.03174  -1.01054
 Alpha  occ. eigenvalues --   -0.96707  -0.90052  -0.88747  -0.82501  -0.79731
 Alpha  occ. eigenvalues --   -0.75892  -0.72297  -0.67329  -0.65099  -0.62804
 Alpha  occ. eigenvalues --   -0.60674  -0.58900  -0.58243  -0.57464  -0.56074
 Alpha  occ. eigenvalues --   -0.53401  -0.52919  -0.52237  -0.49367  -0.48895
 Alpha  occ. eigenvalues --   -0.47232  -0.46947  -0.46252  -0.45740  -0.45190
 Alpha  occ. eigenvalues --   -0.43522  -0.42773  -0.42213  -0.39922
 Alpha virt. eigenvalues --    0.22711   0.24760   0.26688   0.28939   0.29063
 Alpha virt. eigenvalues --    0.29737   0.31356   0.32140   0.32677   0.33310
 Alpha virt. eigenvalues --    0.34141   0.34629   0.36422   0.36441   0.37096
 Alpha virt. eigenvalues --    0.37981   0.38099   0.38682   0.39545   0.40439
 Alpha virt. eigenvalues --    0.41707   0.42354   0.42547   0.43557   0.44554
 Alpha virt. eigenvalues --    0.47407   0.48338   0.50049   0.52727   0.53413
 Alpha virt. eigenvalues --    0.57159   0.57928   0.61083   0.89388   0.90322
 Alpha virt. eigenvalues --    0.91412   0.92770   0.93582   0.96026   0.98741
 Alpha virt. eigenvalues --    0.99627   1.00756   1.01683   1.03970   1.05147
 Alpha virt. eigenvalues --    1.05818   1.07032   1.08289   1.08879   1.10702
 Alpha virt. eigenvalues --    1.11670   1.12969   1.15171   1.16180   1.18426
 Alpha virt. eigenvalues --    1.21078   1.23371   1.25610   1.25947   1.26781
 Alpha virt. eigenvalues --    1.29142   1.30548   1.30869   1.31697   1.33563
 Alpha virt. eigenvalues --    1.34371   1.37169   1.37791   1.38272   1.39057
 Alpha virt. eigenvalues --    1.40073   1.40528   1.41267   1.42170   1.42864
 Alpha virt. eigenvalues --    1.44527   1.45084   1.46608   1.47219   1.47532
 Alpha virt. eigenvalues --    1.48615   1.49277   1.51382   1.58079   1.65958
 Alpha virt. eigenvalues --    1.71221   1.75958   1.82027   1.91245   1.98441
 Alpha virt. eigenvalues --    2.12170   2.20140   2.28565   2.37621   2.46181
 Alpha virt. eigenvalues --    2.57950   2.77212   2.80430   3.19182
          Condensed to atoms (all electrons):
              1          2          3          4          5          6
     1  C    5.527950   0.214002  -0.089022  -0.089819   0.212295   0.392888
     2  C    0.214002   5.550443   0.211261  -0.093605  -0.087451  -0.043210
     3  C   -0.089022   0.211261   5.730758   0.194717  -0.092309   0.003837
     4  C   -0.089819  -0.093605   0.194717   5.707607   0.214153   0.003806
     5  C    0.212295  -0.087451  -0.092309   0.214153   5.544942  -0.043070
     6  H    0.392888  -0.043210   0.003837   0.003806  -0.043070   0.512230
     7  H    0.393435  -0.043324   0.003275   0.003376  -0.042904  -0.022553
     8  H   -0.044079   0.396291  -0.048867   0.004056   0.003323  -0.004979
     9  H   -0.041208   0.392355  -0.042030   0.003473   0.003634   0.001969
    10  H    0.003286  -0.039840   0.409132  -0.041506   0.002721  -0.000052
    11  H    0.003380   0.003048  -0.042392   0.408215  -0.038511  -0.000050
    12  H   -0.041914   0.003648   0.003457  -0.042508   0.391706   0.002093
    13  H   -0.043887   0.003387   0.004185  -0.047731   0.396876  -0.005001
    14  C    0.005710   0.006778  -0.072486   0.254231  -0.085358  -0.000161
    15  H    0.000050  -0.000143   0.004050  -0.044015  -0.002328   0.000003
    16  H   -0.000189   0.000073  -0.000778  -0.048761   0.004450   0.000002
    17  H    0.000332   0.000259   0.000035  -0.052796  -0.001120  -0.000022
    18  C    0.005667  -0.082794   0.250771  -0.066393   0.005952  -0.000164
    19  H   -0.000136   0.004156  -0.049605  -0.000942   0.000052   0.000001
    20  H    0.000275  -0.001074  -0.049231   0.000330  -0.000049  -0.000021
    21  C    0.000057  -0.007076  -0.076730   0.004831  -0.000141   0.000005
    22  H    0.000016   0.000885   0.000132  -0.000104   0.000006  -0.000005
    23  H   -0.000009  -0.000118  -0.003968   0.000152  -0.000005   0.000000
    24  C   -0.000001   0.000083   0.004530  -0.000091   0.000001   0.000000
    25  H    0.000000  -0.000004  -0.000054  -0.000003   0.000000   0.000000
    26  H    0.000000  -0.000001   0.000016   0.000001   0.000000   0.000000
    27  C    0.000000   0.000002  -0.000104   0.000000   0.000000   0.000000
    28  H    0.000000   0.000000   0.000001   0.000000   0.000000   0.000000
    29  H    0.000000  -0.000001   0.000000   0.000000   0.000000   0.000000
    30  C    0.000000   0.000000   0.000000   0.000000   0.000000   0.000000
    31  H    0.000000   0.000000   0.000000   0.000000   0.000000   0.000000
    32  H    0.000000   0.000000   0.000000   0.000000   0.000000   0.000000
    33  H    0.000000   0.000000   0.000000   0.000000   0.000000   0.000000
              7          8          9         10         11         12
     1  C    0.393435  -0.044079  -0.041208   0.003286   0.003380  -0.041914
     2  C   -0.043324   0.396291   0.392355  -0.039840   0.003048   0.003648
     3  C    0.003275  -0.048867  -0.042030   0.409132  -0.042392   0.003457
     4  C    0.003376   0.004056   0.003473  -0.041506   0.408215  -0.042508
     5  C   -0.042904   0.003323   0.003634   0.002721  -0.038511   0.391706
     6  H   -0.022553  -0.004979   0.001969  -0.000052  -0.000050   0.002093
     7  H    0.511554   0.002305  -0.005217  -0.000097  -0.000102  -0.005342
     8  H    0.002305   0.512860  -0.022710   0.002279  -0.000056  -0.000051
     9  H   -0.005217  -0.022710   0.507259  -0.004459  -0.000088  -0.000114
    10  H   -0.000097   0.002279  -0.004459   0.505324  -0.004175  -0.000093
    11  H   -0.000102  -0.000056  -0.000088  -0.004175   0.504321  -0.004380
    12  H   -0.005342  -0.000051  -0.000114  -0.000093  -0.004380   0.509896
    13  H    0.002232  -0.000085  -0.000050  -0.000055   0.002015  -0.022563
    14  C   -0.000054  -0.000210  -0.000072   0.003032  -0.043001   0.003007
    15  H    0.000000   0.000003   0.000001  -0.000057  -0.001763   0.000077
    16  H    0.000001   0.000002  -0.000001  -0.000057  -0.001549  -0.000084
    17  H   -0.000002  -0.000055  -0.000004  -0.000023   0.003199   0.000000
    18  C   -0.000053  -0.007094   0.002650  -0.044660   0.002795  -0.000066
    19  H    0.000001   0.000283  -0.000084  -0.000907   0.000044   0.000000
    20  H   -0.000002   0.001565   0.000014   0.003073  -0.000009  -0.000003
    21  C   -0.000001  -0.002007   0.000259  -0.003872  -0.000068   0.000001
    22  H    0.000000   0.002358  -0.000179   0.000165   0.000000   0.000000
    23  H    0.000000   0.000233   0.000142   0.003214  -0.000008   0.000000
    24  C    0.000000   0.000022   0.000002   0.000047   0.000001   0.000000
    25  H    0.000000  -0.000001   0.000000   0.000026   0.000000   0.000000
    26  H    0.000000  -0.000002   0.000000  -0.000001   0.000000   0.000000
    27  C    0.000000   0.000000   0.000000  -0.000004   0.000000   0.000000
    28  H    0.000000   0.000000   0.000000  -0.000002   0.000000   0.000000
    29  H    0.000000  -0.000002   0.000000   0.000000   0.000000   0.000000
    30  C    0.000000   0.000000   0.000000   0.000000   0.000000   0.000000
    31  H    0.000000   0.000000   0.000000   0.000000   0.000000   0.000000
    32  H    0.000000   0.000000   0.000000   0.000000   0.000000   0.000000
    33  H    0.000000   0.000000   0.000000   0.000000   0.000000   0.000000
             13         14         15         16         17         18
     1  C   -0.043887   0.005710   0.000050  -0.000189   0.000332   0.005667
     2  C    0.003387   0.006778  -0.000143   0.000073   0.000259  -0.082794
     3  C    0.004185  -0.072486   0.004050  -0.000778   0.000035   0.250771
     4  C   -0.047731   0.254231  -0.044015  -0.048761  -0.052796  -0.066393
     5  C    0.396876  -0.085358  -0.002328   0.004450  -0.001120   0.005952
     6  H   -0.005001  -0.000161   0.000003   0.000002  -0.000022  -0.000164
     7  H    0.002232  -0.000054   0.000000   0.000001  -0.000002  -0.000053
     8  H   -0.000085  -0.000210   0.000003   0.000002  -0.000055  -0.007094
     9  H   -0.000050  -0.000072   0.000001  -0.000001  -0.000004   0.002650
    10  H   -0.000055   0.003032  -0.000057  -0.000057  -0.000023  -0.044660
    11  H    0.002015  -0.043001  -0.001763  -0.001549   0.003199   0.002795
    12  H   -0.022563   0.003007   0.000077  -0.000084   0.000000  -0.000066
    13  H    0.512826  -0.007599   0.000975   0.000285   0.001372  -0.000191
    14  C   -0.007599   5.413408   0.386257   0.383819   0.383987  -0.058138
    15  H    0.000975   0.386257   0.507211  -0.024394  -0.025132   0.000888
    16  H    0.000285   0.383819  -0.024394   0.516876  -0.026896  -0.004547
    17  H    0.001372   0.383987  -0.025132  -0.026896   0.522588  -0.004304
    18  C   -0.000191  -0.058138   0.000888  -0.004547  -0.004304   5.531936
    19  H    0.000001  -0.004647   0.000031   0.000942  -0.000324   0.396806
    20  H   -0.000027  -0.004860   0.000122  -0.001227  -0.000171   0.391537
    21  C    0.000002   0.000709  -0.000005   0.000127   0.000021   0.237455
    22  H    0.000000  -0.000010   0.000000  -0.000003  -0.000005  -0.044323
    23  H    0.000000  -0.000021   0.000000  -0.000006  -0.000006  -0.049885
    24  C    0.000000  -0.000018   0.000000  -0.000010   0.000003  -0.078218
    25  H    0.000000  -0.000003   0.000000  -0.000006   0.000000  -0.001961
    26  H    0.000000  -0.000006   0.000000   0.000002  -0.000003  -0.000838
    27  C    0.000000   0.000000   0.000000   0.000000   0.000000   0.004810
    28  H    0.000000   0.000000   0.000000   0.000000   0.000000  -0.000026
    29  H    0.000000   0.000000   0.000000   0.000000   0.000000  -0.000061
    30  C    0.000000   0.000000   0.000000   0.000000   0.000000  -0.000099
    31  H    0.000000   0.000000   0.000000   0.000000   0.000000   0.000000
    32  H    0.000000   0.000000   0.000000   0.000000   0.000000   0.000001
    33  H    0.000000   0.000000   0.000000   0.000000   0.000000   0.000000
             19         20         21         22         23         24
     1  C   -0.000136   0.000275   0.000057   0.000016  -0.000009  -0.000001
     2  C    0.004156  -0.001074  -0.007076   0.000885  -0.000118   0.000083
     3  C   -0.049605  -0.049231  -0.076730   0.000132  -0.003968   0.004530
     4  C   -0.000942   0.000330   0.004831  -0.000104   0.000152  -0.000091
     5  C    0.000052  -0.000049  -0.000141   0.000006  -0.000005   0.000001
     6  H    0.000001  -0.000021   0.000005  -0.000005   0.000000   0.000000
     7  H    0.000001  -0.000002  -0.000001   0.000000   0.000000   0.000000
     8  H    0.000283   0.001565  -0.002007   0.002358   0.000233   0.000022
     9  H   -0.000084   0.000014   0.000259  -0.000179   0.000142   0.000002
    10  H   -0.000907   0.003073  -0.003872   0.000165   0.003214   0.000047
    11  H    0.000044  -0.000009  -0.000068   0.000000  -0.000008   0.000001
    12  H    0.000000  -0.000003   0.000001   0.000000   0.000000   0.000000
    13  H    0.000001  -0.000027   0.000002   0.000000   0.000000   0.000000
    14  C   -0.004647  -0.004860   0.000709  -0.000010  -0.000021  -0.000018
    15  H    0.000031   0.000122  -0.000005   0.000000   0.000000   0.000000
    16  H    0.000942  -0.001227   0.000127  -0.000003  -0.000006  -0.000010
    17  H   -0.000324  -0.000171   0.000021  -0.000005  -0.000006   0.000003
    18  C    0.396806   0.391537   0.237455  -0.044323  -0.049885  -0.078218
    19  H    0.510206  -0.024728  -0.046797   0.002995   0.000734  -0.004074
    20  H   -0.024728   0.515826  -0.044175  -0.002927   0.003110   0.001022
    21  C   -0.046797  -0.044175   5.486627   0.388249   0.392125   0.254956
    22  H    0.002995  -0.002927   0.388249   0.513027  -0.024888  -0.046026
    23  H    0.000734   0.003110   0.392125  -0.024888   0.517246  -0.046526
    24  C   -0.004074   0.001022   0.254956  -0.046026  -0.046526   5.469715
    25  H    0.002523   0.000074  -0.045524   0.003201  -0.001811   0.388175
    26  H    0.000225   0.001037  -0.046782  -0.001323   0.003274   0.388187
    27  C    0.000115  -0.000093  -0.081990  -0.001259  -0.000940   0.252074
    28  H    0.000003  -0.000001  -0.001104   0.000085   0.002179  -0.047211
    29  H    0.000000   0.000006  -0.001104   0.002421   0.000080  -0.047013
    30  C   -0.000004   0.000001   0.004602  -0.000018  -0.000040  -0.088034
    31  H   -0.000001   0.000000  -0.000044   0.000000   0.000005  -0.001923
    32  H    0.000000   0.000000  -0.000088   0.000001   0.000001   0.004130
    33  H    0.000000   0.000000  -0.000042   0.000004   0.000000  -0.001911
             25         26         27         28         29         30
     1  C    0.000000   0.000000   0.000000   0.000000   0.000000   0.000000
     2  C   -0.000004  -0.000001   0.000002   0.000000  -0.000001   0.000000
     3  C   -0.000054   0.000016  -0.000104   0.000001   0.000000   0.000000
     4  C   -0.000003   0.000001   0.000000   0.000000   0.000000   0.000000
     5  C    0.000000   0.000000   0.000000   0.000000   0.000000   0.000000
     6  H    0.000000   0.000000   0.000000   0.000000   0.000000   0.000000
     7  H    0.000000   0.000000   0.000000   0.000000   0.000000   0.000000
     8  H   -0.000001  -0.000002   0.000000   0.000000  -0.000002   0.000000
     9  H    0.000000   0.000000   0.000000   0.000000   0.000000   0.000000
    10  H    0.000026  -0.000001  -0.000004  -0.000002   0.000000   0.000000
    11  H    0.000000   0.000000   0.000000   0.000000   0.000000   0.000000
    12  H    0.000000   0.000000   0.000000   0.000000   0.000000   0.000000
    13  H    0.000000   0.000000   0.000000   0.000000   0.000000   0.000000
    14  C   -0.000003  -0.000006   0.000000   0.000000   0.000000   0.000000
    15  H    0.000000   0.000000   0.000000   0.000000   0.000000   0.000000
    16  H   -0.000006   0.000002   0.000000   0.000000   0.000000   0.000000
    17  H    0.000000  -0.000003   0.000000   0.000000   0.000000   0.000000
    18  C   -0.001961  -0.000838   0.004810  -0.000026  -0.000061  -0.000099
    19  H    0.002523   0.000225   0.000115   0.000003   0.000000  -0.000004
    20  H    0.000074   0.001037  -0.000093  -0.000001   0.000006   0.000001
    21  C   -0.045524  -0.046782  -0.081990  -0.001104  -0.001104   0.004602
    22  H    0.003201  -0.001323  -0.001259   0.000085   0.002421  -0.000018
    23  H   -0.001811   0.003274  -0.000940   0.002179   0.000080  -0.000040
    24  C    0.388175   0.388187   0.252074  -0.047211  -0.047013  -0.088034
    25  H    0.520486  -0.025964  -0.046378  -0.001693   0.003300  -0.000978
    26  H   -0.025964   0.521117  -0.046449   0.003320  -0.001780  -0.000889
    27  C   -0.046378  -0.046449   5.457830   0.388816   0.388478   0.252635
    28  H   -0.001693   0.003320   0.388816   0.519095  -0.025931  -0.043819
    29  H    0.003300  -0.001780   0.388478  -0.025931   0.519198  -0.043597
    30  C   -0.000978  -0.000889   0.252635  -0.043819  -0.043597   5.368398
    31  H    0.002594   0.000045  -0.047090  -0.001881   0.003321   0.379533
    32  H   -0.000028  -0.000034  -0.043762  -0.001543  -0.001607   0.381498
    33  H    0.000044   0.002523  -0.047072   0.003324  -0.001851   0.379555
             31         32         33
     1  C    0.000000   0.000000   0.000000
     2  C    0.000000   0.000000   0.000000
     3  C    0.000000   0.000000   0.000000
     4  C    0.000000   0.000000   0.000000
     5  C    0.000000   0.000000   0.000000
     6  H    0.000000   0.000000   0.000000
     7  H    0.000000   0.000000   0.000000
     8  H    0.000000   0.000000   0.000000
     9  H    0.000000   0.000000   0.000000
    10  H    0.000000   0.000000   0.000000
    11  H    0.000000   0.000000   0.000000
    12  H    0.000000   0.000000   0.000000
    13  H    0.000000   0.000000   0.000000
    14  C    0.000000   0.000000   0.000000
    15  H    0.000000   0.000000   0.000000
    16  H    0.000000   0.000000   0.000000
    17  H    0.000000   0.000000   0.000000
    18  C    0.000000   0.000001   0.000000
    19  H   -0.000001   0.000000   0.000000
    20  H    0.000000   0.000000   0.000000
    21  C   -0.000044  -0.000088  -0.000042
    22  H    0.000000   0.000001   0.000004
    23  H    0.000005   0.000001   0.000000
    24  C   -0.001923   0.004130  -0.001911
    25  H    0.002594  -0.000028   0.000044
    26  H    0.000045  -0.000034   0.002523
    27  C   -0.047090  -0.043762  -0.047072
    28  H   -0.001881  -0.001543   0.003324
    29  H    0.003321  -0.001607  -0.001851
    30  C    0.379533   0.381498   0.379555
    31  H    0.518953  -0.025540  -0.026846
    32  H   -0.025540   0.513594  -0.025555
    33  H   -0.026846  -0.025555   0.518879
 Mulliken atomic charges:
              1
     1  C   -0.409079
     2  C   -0.388030
     3  C   -0.252582
     4  C   -0.270674
     5  C   -0.386867
     6  H    0.202452
     7  H    0.203470
     8  H    0.204619
     9  H    0.204457
    10  H    0.207559
    11  H    0.209133
    12  H    0.203235
    13  H    0.203032
    14  C   -0.564294
    15  H    0.198170
    16  H    0.201931
    17  H    0.199068
    18  C   -0.387455
    19  H    0.213129
    20  H    0.210606
    21  C   -0.412476
    22  H    0.207525
    23  H    0.205734
    24  C   -0.401892
    25  H    0.203986
    26  H    0.204323
    27  C   -0.429620
    28  H    0.206389
    29  H    0.206142
    30  C   -0.588746
    31  H    0.198874
    32  H    0.198933
    33  H    0.198949
 Sum of Mulliken atomic charges =   0.00000
 Mulliken charges with hydrogens summed into heavy atoms:
              1
     1  C   -0.003157
     2  C    0.021045
     3  C   -0.045023
     4  C   -0.061540
     5  C    0.019400
    14  C    0.034875
    18  C    0.036280
    21  C    0.000783
    24  C    0.006417
    27  C   -0.017090
    30  C    0.008010
 Sum of Mulliken charges with hydrogens summed into heavy atoms =   0.00000
 Electronic spatial extent (au):  <R**2>=           3169.5546
 Charge=              0.0000 electrons
 Dipole moment (field-independent basis, Debye):
    X=             -0.0053    Y=             -0.0054    Z=              0.0390  Tot=              0.0397
 Quadrupole moment (field-independent basis, Debye-Ang):
   XX=            -77.1951   YY=            -75.5591   ZZ=            -73.0889
   XY=             -0.1536   XZ=             -0.2006   YZ=              0.1358
 Traceless Quadrupole moment (field-independent basis, Debye-Ang):
   XX=             -1.9141   YY=             -0.2780   ZZ=              2.1921
   XY=             -0.1536   XZ=             -0.2006   YZ=              0.1358
 Octapole moment (field-independent basis, Debye-Ang**2):
  XXX=             -5.7638  YYY=             -0.2524  ZZZ=             -0.8662  XYY=              2.2632
  XXY=             -1.7063  XXZ=              2.1768  XZZ=              0.8799  YZZ=             -0.4396
  YYZ=              2.2001  XYZ=              1.0867
 Hexadecapole moment (field-independent basis, Debye-Ang**3):
 XXXX=          -3778.2140 YYYY=           -598.8762 ZZZZ=           -184.6311 XXXY=            -25.0478
 XXXZ=             -7.8001 YYYX=              1.2706 YYYZ=              0.0572 ZZZX=              1.4590
 ZZZY=              0.8943 XXYY=           -714.5142 XXZZ=           -635.3083 YYZZ=           -126.8632
 XXYZ=             -2.9074 YYXZ=             -3.5437 ZZXY=              1.5656
 N-N= 6.496008658549D+02 E-N=-2.291626232016D+03  KE= 4.268854163693D+02
 1\1\GINC-NODE02\SP\RHF\3-21G\C11H22\SC4102.09\25-Jun-2022\0\\# hf/3-21
 g geom=connectivity\\b\\0,1\C,0,-1.9164118,-0.47400611,0.\C,0,-0.39455
 38,-0.47400611,0.\C,0,0.0742192,0.97385889,0.\C,0,-1.1535208,1.8634268
 9,-0.133186\C,0,-2.3856178,0.97031389,-0.10359\H,0,-2.3083738,-1.07645
 111,-0.857508\H,0,-2.3065268,-0.94441711,0.937504\H,0,-0.0059268,-1.00
 860411,-0.90328\H,0,-0.0011868,-1.01473811,0.896837\H,0,0.6211542,1.20
 555189,0.948588\H,0,-1.1891978,2.60949689,0.699798\H,0,-3.0379958,1.23
 211589,0.767074\H,0,-2.9973638,1.11793589,-1.028793\C,0,-1.09968634,2.
 65824232,-1.45112769\H,0,-1.97160254,3.27306307,-1.53272181\H,0,-0.225
 82145,3.27564331,-1.45985516\H,0,-1.0642306,1.9782622,-2.27651846\C,0,
 1.0543167,1.22602206,-1.16078535\H,0,1.34324458,2.25626049,-1.16621314
 \H,0,0.57859969,0.98411773,-2.08818797\C,0,2.30325045,0.3435734,-0.978
 9919\H,0,2.12404931,-0.62063466,-1.40688182\H,0,2.51582079,0.23690695,
 0.06424159\C,0,3.50415696,1.00238374,-1.68283314\H,0,3.72124259,1.9399
 8617,-1.21520559\H,0,3.26845279,1.16418447,-2.71393162\C,0,4.73185969,
 0.07887526,-1.57569729\H,0,4.95975431,-0.09329813,-0.54452302\H,0,4.51
 926387,-0.85406352,-2.05457957\C,0,5.93754302,0.74590242,-2.26344904\H
 ,0,6.15233337,1.67718419,-1.78232602\H,0,6.78965941,0.10270432,-2.1920
 777\H,0,5.70835096,0.92127247,-3.29379672\\Version=EM64L-G09RevC.01\St
 ate=1-A\HF=-426.9661233\RMSD=7.164e-09\Dipole=0.0017668,0.0037903,0.01
 50633\Quadrupole=-1.3057833,0.1250259,1.1807574,0.0911809,0.5859976,0.
 7059851\PG=C01 [X(C11H22)]\\@


 Any fool can criticize, condemn, and complain -- and most do.
 -- Dale Carnegie
 Job cpu time:  0 days  0 hours  0 minutes 11.0 seconds.
 File lengths (MBytes):  RWF=     15 Int=      0 D2E=      0 Chk=      4 Scr=      1
 Normal termination of Gaussian 09 at Sat Jun 25 17:14:04 2022.
