 Entering Gaussian System, Link 0=g09
 Input=/home/iiit/sc4102.09/Problem1/cyclopentanylhexane.com
 Output=/home/iiit/sc4102.09/Problem1/cyclopentanylhexane.log
 Initial command:
 /global/g09-revC/l1.exe /scratch/Gau-40832.inp -scrdir=/scratch/
 Entering Link 1 = /global/g09-revC/l1.exe PID=     40837.
  
 Copyright (c) 1988,1990,1992,1993,1995,1998,2003,2009,2011,
            Gaussian, Inc.  All Rights Reserved.
  
 This is part of the Gaussian(R) 09 program.  It is based on
 the Gaussian(R) 03 system (copyright 2003, Gaussian, Inc.),
 the Gaussian(R) 98 system (copyright 1998, Gaussian, Inc.),
 the Gaussian(R) 94 system (copyright 1995, Gaussian, Inc.),
 the Gaussian 92(TM) system (copyright 1992, Gaussian, Inc.),
 the Gaussian 90(TM) system (copyright 1990, Gaussian, Inc.),
 the Gaussian 88(TM) system (copyright 1988, Gaussian, Inc.),
 the Gaussian 86(TM) system (copyright 1986, Carnegie Mellon
 University), and the Gaussian 82(TM) system (copyright 1983,
 Carnegie Mellon University). Gaussian is a federally registered
 trademark of Gaussian, Inc.
  
 This software contains proprietary and confidential information,
 including trade secrets, belonging to Gaussian, Inc.
  
 This software is provided under written license and may be
 used, copied, transmitted, or stored only in accord with that
 written license.
  
 The following legend is applicable only to US Government
 contracts under FAR:
  
                    RESTRICTED RIGHTS LEGEND
  
 Use, reproduction and disclosure by the US Government is
 subject to restrictions as set forth in subparagraphs (a)
 and (c) of the Commercial Computer Software - Restricted
 Rights clause in FAR 52.227-19.
  
 Gaussian, Inc.
 340 Quinnipiac St., Bldg. 40, Wallingford CT 06492
  
  
 ---------------------------------------------------------------
 Warning -- This program may not be used in any manner that
 competes with the business of Gaussian, Inc. or will provide
 assistance to any competitor of Gaussian, Inc.  The licensee
 of this program is prohibited from giving any competitor of
 Gaussian, Inc. access to this program.  By using this program,
 the user acknowledges that Gaussian, Inc. is engaged in the
 business of creating and licensing software in the field of
 computational chemistry and represents and warrants to the
 licensee that it is not a competitor of Gaussian, Inc. and that
 it will not use this program in any manner prohibited above.
 ---------------------------------------------------------------
  

 Cite this work as:
 Gaussian 09, Revision C.01,
 M. J. Frisch, G. W. Trucks, H. B. Schlegel, G. E. Scuseria, 
 M. A. Robb, J. R. Cheeseman, G. Scalmani, V. Barone, B. Mennucci, 
 G. A. Petersson, H. Nakatsuji, M. Caricato, X. Li, H. P. Hratchian, 
 A. F. Izmaylov, J. Bloino, G. Zheng, J. L. Sonnenberg, M. Hada, 
 M. Ehara, K. Toyota, R. Fukuda, J. Hasegawa, M. Ishida, T. Nakajima, 
 Y. Honda, O. Kitao, H. Nakai, T. Vreven, J. A. Montgomery, Jr., 
 J. E. Peralta, F. Ogliaro, M. Bearpark, J. J. Heyd, E. Brothers, 
 K. N. Kudin, V. N. Staroverov, T. Keith, R. Kobayashi, J. Normand, 
 K. Raghavachari, A. Rendell, J. C. Burant, S. S. Iyengar, J. Tomasi, 
 M. Cossi, N. Rega, J. M. Millam, M. Klene, J. E. Knox, J. B. Cross, 
 V. Bakken, C. Adamo, J. Jaramillo, R. Gomperts, R. E. Stratmann, 
 O. Yazyev, A. J. Austin, R. Cammi, C. Pomelli, J. W. Ochterski, 
 R. L. Martin, K. Morokuma, V. G. Zakrzewski, G. A. Voth, 
 P. Salvador, J. J. Dannenberg, S. Dapprich, A. D. Daniels, 
 O. Farkas, J. B. Foresman, J. V. Ortiz, J. Cioslowski, 
 and D. J. Fox, Gaussian, Inc., Wallingford CT, 2010.
 
 ******************************************
 Gaussian 09:  EM64L-G09RevC.01 23-Sep-2011
                25-Jun-2022 
 ******************************************
 %chk=cyclopentanylhexane.chk
 ----------------------------
 # hf/3-21g geom=connectivity
 ----------------------------
 1/38=1,57=2/1;
 2/12=2,17=6,18=5,40=1/2;
 3/5=5,11=9,16=1,25=1,30=1/1,2,3;
 4//1;
 5/5=2,38=5/2;
 6/7=2,8=2,9=2,10=2,28=1/1;
 99/5=1,9=1/99;
 -------------------
 cyclopentanylhexane
 -------------------
 Charge =  0 Multiplicity = 1
 Symbolic Z-Matrix:
 C                    -2.50765   0.42304   0. 
 C                    -0.98579   0.42304   0. 
 C                    -0.51701   1.8709    0. 
 C                    -1.74475   2.76047  -0.13319 
 C                    -2.97685   1.86736  -0.10359 
 H                    -2.89961  -0.17941  -0.85751 
 H                    -2.89776  -0.04737   0.9375 
 H                    -0.59716  -0.11156  -0.90328 
 H                    -0.59242  -0.11769   0.89684 
 H                     0.19495   2.05408  -0.84322 
 H                    -1.78043   3.50654   0.6998 
 H                    -1.70563   3.33806  -1.09092 
 H                    -3.62923   2.12916   0.76707 
 H                    -3.5886    2.01498  -1.02879 
 C                     0.23555   2.1897    1.30523 
 H                     0.55227   3.21169   1.29381 
 H                    -0.41355   2.02677   2.1401 
 C                     1.46649   1.27212   1.42528 
 H                     1.1869    0.36243   1.91436 
 H                     1.84297   1.05076   0.44846 
 C                     2.558     1.98239   2.2473 
 H                     2.89631   2.84852   1.71789 
 H                     2.15619   2.27743   3.19409 
 C                     3.74089   1.02146   2.46862 
 H                     3.40605   0.16291   3.01238 
 H                     4.13226   0.71351   1.52157 
 C                     4.84242   1.7394    3.27036 
 H                     5.18138   2.59462   2.72391 
 H                     4.44941   2.05253   4.21502 
 C                     6.02175   0.7758    3.49896 
 H                     6.78765   1.27504   4.05488 
 H                     5.68307  -0.0788    4.04655 
 H                     6.41392   0.46164   2.55429 
 
                          Input orientation:                          
 ---------------------------------------------------------------------
 Center     Atomic      Atomic             Coordinates (Angstroms)
 Number     Number       Type             X           Y           Z
 ---------------------------------------------------------------------
      1          6           0       -2.507645    0.423038    0.000000
      2          6           0       -0.985787    0.423038    0.000000
      3          6           0       -0.517014    1.870903    0.000000
      4          6           0       -1.744754    2.760471   -0.133186
      5          6           0       -2.976851    1.867358   -0.103590
      6          1           0       -2.899607   -0.179407   -0.857508
      7          1           0       -2.897760   -0.047373    0.937504
      8          1           0       -0.597160   -0.111560   -0.903280
      9          1           0       -0.592420   -0.117694    0.896837
     10          1           0        0.194947    2.054079   -0.843216
     11          1           0       -1.780431    3.506541    0.699798
     12          1           0       -1.705633    3.338056   -1.090922
     13          1           0       -3.629229    2.129160    0.767074
     14          1           0       -3.588597    2.014980   -1.028793
     15          6           0        0.235550    2.189704    1.305225
     16          1           0        0.552270    3.211692    1.293812
     17          1           0       -0.413551    2.026766    2.140102
     18          6           0        1.466494    1.272118    1.425278
     19          1           0        1.186900    0.362433    1.914359
     20          1           0        1.842969    1.050759    0.448464
     21          6           0        2.558000    1.982392    2.247304
     22          1           0        2.896312    2.848516    1.717894
     23          1           0        2.156194    2.277431    3.194090
     24          6           0        3.740890    1.021459    2.468619
     25          1           0        3.406047    0.162914    3.012385
     26          1           0        4.132259    0.713513    1.521571
     27          6           0        4.842422    1.739402    3.270357
     28          1           0        5.181382    2.594621    2.723909
     29          1           0        4.449410    2.052529    4.215023
     30          6           0        6.021747    0.775798    3.498960
     31          1           0        6.787653    1.275040    4.054879
     32          1           0        5.683069   -0.078804    4.046548
     33          1           0        6.413921    0.461642    2.554288
 ---------------------------------------------------------------------
                    Distance matrix (angstroms):
                    1          2          3          4          5
     1  C    0.000000
     2  C    1.521858   0.000000
     3  C    2.461488   1.521861   0.000000
     4  C    2.462384   2.461171   1.521977   0.000000
     5  C    1.522152   2.461936   2.462020   1.522035   0.000000
     6  H    1.118881   2.181964   3.258196   3.240557   2.182569
     7  H    1.119102   2.180789   3.197913   3.218662   2.180900
     8  H    2.179831   1.119259   2.180022   3.187253   3.196647
     9  H    2.182841   1.118680   2.182778   3.266903   3.259877
    10  H    3.267310   2.182989   1.118685   2.183019   3.262241
    11  H    3.244464   3.260240   2.182029   1.118819   2.182607
    12  H    3.214135   3.194623   2.180703   1.119104   2.180315
    13  H    2.181102   3.238370   3.215740   2.181804   1.119014
    14  H    2.182006   3.219831   3.242498   2.181198   1.118940
    15  C    3.514234   2.513243   1.540000   2.513246   3.522526
    16  H    4.337467   3.437464   2.148263   2.741576   4.026743
    17  H    3.396647   2.734855   2.148263   2.734641   3.410289
    18  C    4.306523   2.960750   2.514809   3.867314   4.736567
    19  H    4.161503   2.896379   2.973815   4.305534   4.865567
    20  H    4.418484   2.932067   2.538361   4.016614   4.919580
    21  C    5.756972   4.476649   3.810317   4.978537   6.014525
    22  H    6.167403   4.889253   3.944323   4.997374   6.226919
    23  H    5.949150   4.849024   4.184916   5.149902   6.114819
    24  C    6.745100   5.365972   4.994535   6.315524   7.242917
    25  H    6.641829   5.332011   5.232791   6.570592   7.304507
    26  H    6.818202   5.347331   5.026974   6.439530   7.383221
    27  C    8.151781   6.811466   6.279816   7.484489   8.517096
    28  H    8.441363   7.083039   6.357293   7.494122   8.664897
    29  H    8.295919   7.068453   6.516500   7.601037   8.592674
    30  C    9.225926   7.840453   7.496491   8.800566   9.754212
    31  H   10.176961   8.808764   8.375874   9.620207  10.629640
    32  H    9.149547   7.816652   7.656170   8.983553   9.798235
    33  H    9.280098   7.828254   7.519858   8.892193   9.860373
                    6          7          8          9         10
     6  H    0.000000
     7  H    1.799862   0.000000
     8  H    2.303901   2.947095   0.000000
     9  H    2.899077   2.306771   1.800134   0.000000
    10  H    3.816403   4.141485   2.306737   2.892115   0.000000
    11  H    4.154993   3.732992   4.130453   3.819067   2.897008
    12  H    3.721908   4.122719   3.628191   4.139159   2.306981
    13  H    2.915664   2.302475   4.123633   3.779868   4.150059
    14  H    2.306378   2.932044   3.672414   4.151316   3.788294
    15  C    4.485456   3.867476   3.296471   2.485237   2.153101
    16  H    5.295582   4.759324   4.146373   3.542981   2.456549
    17  H    4.475862   3.452476   3.724020   2.485238   3.044865
    18  C    5.136232   4.585378   3.405205   2.539676   2.715577
    19  H    4.967532   4.219791   3.368476   2.105197   3.383763
    20  H    5.070592   4.890764   3.021991   2.738146   2.321867
    21  C    6.640686   5.966644   4.926038   4.019859   3.891076
    22  H    7.028065   6.524297   5.276074   4.652289   3.806283
    23  H    6.929114   6.003278   5.484221   4.309162   4.494020
    24  C    7.523390   6.896259   5.610001   4.748236   4.960672
    25  H    7.406385   6.639830   5.606553   4.532331   5.362213
    26  H    7.476929   7.095157   5.378481   4.837747   4.784534
    27  C    8.981098   8.279202   7.101715   6.214492   6.214461
    28  H    9.264134   8.685846   7.339719   6.635634   6.154763
    29  H    9.204355   8.314603   7.506542   6.414069   6.609556
    30  C    9.974056   9.316452   7.998566   7.163560   7.378354
    31  H   10.958557  10.260314   9.002304   8.147296   8.249971
    32  H    9.885455   9.126762   7.996447   7.021678   7.653657
    33  H    9.939472   9.464697   7.838277   7.222990   7.263231
                   11         12         13         14         15
    11  H    0.000000
    12  H    1.800183   0.000000
    13  H    2.306460   2.934928   0.000000
    14  H    2.912429   2.302161   1.799952   0.000000
    15  C    2.482897   3.290657   3.902536   4.483556   0.000000
    16  H    2.425135   3.286495   4.351352   4.896263   1.070000
    17  H    2.476403   3.718666   3.498039   4.485861   1.070000
    18  C    4.007679   4.545520   5.209045   5.668179   1.540000
    19  H    4.490615   5.123748   5.256680   5.847942   2.148263
    20  H    4.384412   4.493775   5.586539   5.710860   2.148263
    21  C    4.851782   5.582127   6.363523   6.965237   2.514809
    22  H    4.831298   5.413594   6.633568   7.091764   2.772000
    23  H    4.819671   5.865148   6.275629   7.134721   2.695251
    24  C    6.307879   6.906632   7.644665   8.181708   3.873718
    25  H    6.589951   7.283401   7.642163   8.287721   4.132109
    26  H    6.590616   6.913345   7.925530   8.234670   4.172564
    27  C    7.320706   8.028292   8.842353   9.467878   5.028696
    28  H    7.307220   7.908010   9.037297   9.556741   5.161190
    29  H    7.299443   8.227404   8.783998   9.597321   5.122729
    30  C    8.727328   9.345833  10.121074  10.695553   6.347573
    31  H    9.468275  10.142545  10.956762  11.578334   7.164305
    32  H    8.930805   9.626082  10.116766  10.775288   6.506647
    33  H    8.936327   9.353527  10.336325  10.737862   6.535948
                   16         17         18         19         20
    16  H    0.000000
    17  H    1.747303   0.000000
    18  C    2.148263   2.148263   0.000000
    19  H    2.984311   2.320001   1.070000   0.000000
    20  H    2.655212   2.984311   1.070000   1.747303   0.000000
    21  C    2.538362   2.973815   1.540000   2.148263   2.148263
    22  H    2.409622   3.436382   2.148263   3.023458   2.439859
    23  H    2.656403   2.788783   2.148263   2.498892   3.023457
    24  C    4.042844   4.286950   2.514809   2.695252   2.772000
    25  H    4.515815   4.338681   2.740640   2.483965   3.131321
    26  H    4.371395   4.771960   2.725365   2.992103   2.550714
    27  C    4.947704   5.383800   3.875508   4.134926   4.175407
    28  H    4.884121   5.653898   4.151608   4.646927   4.325062
    29  H    5.006479   5.287187   4.158065   4.335141   4.688714
    30  C    6.380552   6.695109   5.029595   5.104663   5.181054
    31  H    7.089014   7.489246   5.935448   6.064909   6.124249
    32  H    6.688051   6.725826   5.145440   4.995644   5.382238
    33  H    6.596251   7.016803   5.138927   5.266982   5.067065
                   21         22         23         24         25
    21  C    0.000000
    22  H    1.070000   0.000000
    23  H    1.070000   1.747303   0.000000
    24  C    1.540000   2.148263   2.148263   0.000000
    25  H    2.148263   3.024565   2.462992   1.070000   0.000000
    26  H    2.148263   2.474742   3.024565   1.070000   1.747303
    27  C    2.514809   2.725366   2.740641   1.540000   2.148263
    28  H    2.735711   2.509597   3.077896   2.148263   3.024604
    29  H    2.730250   3.046532   2.520262   2.148263   2.470949
    30  C    3.875572   4.151711   4.158166   2.514809   2.730251
    31  H    4.653777   4.804151   4.816239   3.444313   3.709296
    32  H    4.153537   4.664531   4.326358   2.733588   2.512519
    33  H    4.156326   4.332469   4.672758   2.732367   3.057187
                   26         27         28         29         30
    26  H    0.000000
    27  C    2.148263   0.000000
    28  H    2.466748   1.070000   0.000000
    29  H    3.024604   1.070000   1.747303   0.000000
    30  C    2.735711   1.540000   2.148263   2.148263   0.000000
    31  H    3.712692   2.148263   2.468377   2.469315   1.070000
    32  H    3.067293   2.148263   3.024610   2.468376   1.070000
    33  H    2.517126   2.148263   2.469316   3.024610   1.070000
                   31         32         33
    31  H    0.000000
    32  H    1.747303   0.000000
    33  H    1.747303   1.747303   0.000000
 Stoichiometry    C11H22
 Framework group  C1[X(C11H22)]
 Deg. of freedom    93
 Full point group                 C1      NOp   1
 Largest Abelian subgroup         C1      NOp   1
 Largest concise Abelian subgroup C1      NOp   1
                         Standard orientation:                         
 ---------------------------------------------------------------------
 Center     Atomic      Atomic             Coordinates (Angstroms)
 Number     Number       Type             X           Y           Z
 ---------------------------------------------------------------------
      1          6           0       -3.688666    1.165799   -0.346945
      2          6           0       -2.304195    1.161727    0.284937
      3          6           0       -1.932506   -0.282115    0.590270
      4          6           0       -3.138129   -1.153801    0.269253
      5          6           0       -4.212978   -0.263170   -0.337431
      6          1           0       -4.377024    1.840206    0.221590
      7          1           0       -3.638125    1.555609   -1.394744
      8          1           0       -2.303925    1.770348    1.224256
      9          1           0       -1.555056    1.622973   -0.406068
     10          1           0       -1.640405   -0.394638    1.664267
     11          1           0       -2.854378   -1.968075   -0.443628
     12          1           0       -3.520398   -1.647731    1.197853
     13          1           0       -4.456357   -0.596504   -1.377550
     14          1           0       -5.157641   -0.329737    0.258562
     15          6           0       -0.720246   -0.713049   -0.256088
     16          1           0       -0.475494   -1.731186   -0.036102
     17          1           0       -0.959375   -0.620148   -1.294879
     18          6           0        0.483922    0.187664    0.076022
     19          1           0        0.466205    1.053084   -0.552972
     20          1           0        0.430884    0.490490    1.100904
     21          6           0        1.789922   -0.593026   -0.161650
     22          1           0        1.846028   -1.411762    0.524953
     23          1           0        1.804713   -0.966635   -1.164195
     24          6           0        2.993883    0.342371    0.055399
     25          1           0        2.946583    1.152323   -0.642198
     26          1           0        2.969978    0.728892    1.052861
     27          6           0        4.300325   -0.444257   -0.159134
     28          1           0        4.350389   -1.250677    0.542350
     29          1           0        4.321555   -0.835731   -1.154723
     30          6           0        5.504159    0.493190    0.049624
     31          1           0        6.411903   -0.053678   -0.098145
     32          1           0        5.454801    1.298897   -0.652729
     33          1           0        5.482202    0.885692    1.044792
 ---------------------------------------------------------------------
 Rotational constants (GHZ):      3.8564371      0.3063781      0.2937443
 Standard basis: 3-21G (6D, 7F)
 There are   143 symmetry adapted basis functions of A   symmetry.
 Integral buffers will be    131072 words long.
 Raffenetti 1 integral format.
 Two-electron integral symmetry is turned on.
   143 basis functions,   231 primitive gaussians,   143 cartesian basis functions
    44 alpha electrons       44 beta electrons
       nuclear repulsion energy       625.0495906205 Hartrees.
 NAtoms=   33 NActive=   33 NUniq=   33 SFac= 1.00D+00 NAtFMM=   60 NAOKFM=F Big=F
 One-electron integrals computed using PRISM.
 NBasis=   143 RedAO= T  NBF=   143
 NBsUse=   143 1.00D-06 NBFU=   143
 Harris functional with IExCor=  205 diagonalized for initial guess.
 ExpMin= 1.83D-01 ExpMax= 1.72D+02 ExpMxC= 1.72D+02 IAcc=1 IRadAn=         1 AccDes= 0.00D+00
 HarFok:  IExCor=  205 AccDes= 0.00D+00 IRadAn=         1 IDoV= 1
 ScaDFX=  1.000000  1.000000  1.000000  1.000000
 FoFCou: FMM=F IPFlag=           0 FMFlag=      100000 FMFlg1=           0
         NFxFlg=           0 DoJE=T BraDBF=F KetDBF=T FulRan=T
         Omega=  0.000000  0.000000  1.000000  0.000000  0.000000 ICntrl=     500 IOpCl=  0
         NMat0=    1 NMatS0=    1 NMatT0=    0 NMatD0=    1 NMtDS0=    0 NMtDT0=    0
         I1Cent=           4 NGrid=           0.
 Petite list used in FoFCou.
 Initial guess orbital symmetries:
       Occupied  (A) (A) (A) (A) (A) (A) (A) (A) (A) (A) (A) (A)
                 (A) (A) (A) (A) (A) (A) (A) (A) (A) (A) (A) (A)
                 (A) (A) (A) (A) (A) (A) (A) (A) (A) (A) (A) (A)
                 (A) (A) (A) (A) (A) (A) (A) (A)
       Virtual   (A) (A) (A) (A) (A) (A) (A) (A) (A) (A) (A) (A)
                 (A) (A) (A) (A) (A) (A) (A) (A) (A) (A) (A) (A)
                 (A) (A) (A) (A) (A) (A) (A) (A) (A) (A) (A) (A)
                 (A) (A) (A) (A) (A) (A) (A) (A) (A) (A) (A) (A)
                 (A) (A) (A) (A) (A) (A) (A) (A) (A) (A) (A) (A)
                 (A) (A) (A) (A) (A) (A) (A) (A) (A) (A) (A) (A)
                 (A) (A) (A) (A) (A) (A) (A) (A) (A) (A) (A) (A)
                 (A) (A) (A) (A) (A) (A) (A) (A) (A) (A) (A) (A)
                 (A) (A) (A)
 The electronic state of the initial guess is 1-A.
 Requested convergence on RMS density matrix=1.00D-08 within 128 cycles.
 Requested convergence on MAX density matrix=1.00D-06.
 Requested convergence on             energy=1.00D-06.
 No special actions if energy rises.
 Integral accuracy reduced to 1.0D-05 until final iterations.
 Initial convergence to 1.0D-05 achieved.  Increase integral accuracy.
 SCF Done:  E(RHF) =  -426.975275131     A.U. after   11 cycles
             Convg  =    0.6618D-08             -V/T =  2.0006

 **********************************************************************

            Population analysis using the SCF density.

 **********************************************************************

 Orbital symmetries:
       Occupied  (A) (A) (A) (A) (A) (A) (A) (A) (A) (A) (A) (A)
                 (A) (A) (A) (A) (A) (A) (A) (A) (A) (A) (A) (A)
                 (A) (A) (A) (A) (A) (A) (A) (A) (A) (A) (A) (A)
                 (A) (A) (A) (A) (A) (A) (A) (A)
       Virtual   (A) (A) (A) (A) (A) (A) (A) (A) (A) (A) (A) (A)
                 (A) (A) (A) (A) (A) (A) (A) (A) (A) (A) (A) (A)
                 (A) (A) (A) (A) (A) (A) (A) (A) (A) (A) (A) (A)
                 (A) (A) (A) (A) (A) (A) (A) (A) (A) (A) (A) (A)
                 (A) (A) (A) (A) (A) (A) (A) (A) (A) (A) (A) (A)
                 (A) (A) (A) (A) (A) (A) (A) (A) (A) (A) (A) (A)
                 (A) (A) (A) (A) (A) (A) (A) (A) (A) (A) (A) (A)
                 (A) (A) (A) (A) (A) (A) (A) (A) (A) (A) (A) (A)
                 (A) (A) (A)
 The electronic state is 1-A.
 Alpha  occ. eigenvalues --  -11.15743 -11.15642 -11.15598 -11.15379 -11.15340
 Alpha  occ. eigenvalues --  -11.14952 -11.14732 -11.14716 -11.14562 -11.14513
 Alpha  occ. eigenvalues --  -11.14081  -1.13143  -1.08844  -1.04607  -0.99172
 Alpha  occ. eigenvalues --   -0.96311  -0.92993  -0.86144  -0.80697  -0.79595
 Alpha  occ. eigenvalues --   -0.75880  -0.74315  -0.66731  -0.65464  -0.63567
 Alpha  occ. eigenvalues --   -0.61448  -0.58989  -0.58333  -0.56365  -0.55058
 Alpha  occ. eigenvalues --   -0.53518  -0.53076  -0.50899  -0.49029  -0.47780
 Alpha  occ. eigenvalues --   -0.47150  -0.46793  -0.46404  -0.46157  -0.45807
 Alpha  occ. eigenvalues --   -0.44457  -0.43179  -0.42647  -0.39410
 Alpha virt. eigenvalues --    0.22951   0.24081   0.26428   0.28517   0.29310
 Alpha virt. eigenvalues --    0.30639   0.31564   0.31767   0.32547   0.32986
 Alpha virt. eigenvalues --    0.33871   0.35391   0.36048   0.36482   0.36797
 Alpha virt. eigenvalues --    0.37350   0.37593   0.38692   0.39238   0.39998
 Alpha virt. eigenvalues --    0.40685   0.41779   0.42238   0.42705   0.44032
 Alpha virt. eigenvalues --    0.46475   0.47344   0.50556   0.51435   0.53115
 Alpha virt. eigenvalues --    0.55042   0.55886   0.60407   0.89197   0.90173
 Alpha virt. eigenvalues --    0.91844   0.92184   0.93506   0.95125   0.97895
 Alpha virt. eigenvalues --    0.99669   1.02507   1.02955   1.03518   1.04899
 Alpha virt. eigenvalues --    1.06670   1.07431   1.08635   1.09796   1.10512
 Alpha virt. eigenvalues --    1.11037   1.12459   1.13355   1.15926   1.18514
 Alpha virt. eigenvalues --    1.18716   1.21143   1.21854   1.23849   1.26731
 Alpha virt. eigenvalues --    1.28175   1.29389   1.30866   1.31009   1.31748
 Alpha virt. eigenvalues --    1.32624   1.34844   1.36370   1.36921   1.38324
 Alpha virt. eigenvalues --    1.38880   1.39247   1.39447   1.40702   1.41451
 Alpha virt. eigenvalues --    1.44027   1.44154   1.46323   1.47011   1.47314
 Alpha virt. eigenvalues --    1.48166   1.49737   1.50542   1.54536   1.57684
 Alpha virt. eigenvalues --    1.69408   1.75250   1.81707   1.91791   1.94968
 Alpha virt. eigenvalues --    2.11148   2.22500   2.24673   2.33294   2.41554
 Alpha virt. eigenvalues --    2.57705   2.77031   2.80017   2.94831
          Condensed to atoms (all electrons):
              1          2          3          4          5          6
     1  C    5.531907   0.212622  -0.093269  -0.089113   0.212917   0.393231
     2  C    0.212622   5.559382   0.213375  -0.089182  -0.089239  -0.042240
     3  C   -0.093269   0.213375   5.713156   0.214405  -0.091737   0.003462
     4  C   -0.089113  -0.089182   0.214405   5.540477   0.213284   0.003596
     5  C    0.212917  -0.089239  -0.091737   0.213284   5.533348  -0.042396
     6  H    0.393231  -0.042240   0.003462   0.003596  -0.042396   0.509165
     7  H    0.393008  -0.044073   0.003647   0.003652  -0.043466  -0.022583
     8  H   -0.042666   0.392641  -0.043289   0.003302   0.003619  -0.005261
     9  H   -0.042124   0.395160  -0.045791   0.003867   0.003509   0.002033
    10  H    0.003380  -0.040250   0.407652  -0.038663   0.003228  -0.000087
    11  H    0.003471   0.004102  -0.047187   0.397117  -0.043231  -0.000049
    12  H    0.003701   0.003267  -0.043613   0.391857  -0.042070  -0.000107
    13  H   -0.043051   0.003638   0.003752  -0.043232   0.392403   0.002121
    14  H   -0.042932   0.003595   0.003459  -0.042436   0.392698  -0.005217
    15  C    0.006700  -0.085641   0.248132  -0.079802   0.005775  -0.000061
    16  H   -0.000151   0.004053  -0.046808  -0.001836   0.000072   0.000001
    17  H    0.000494  -0.000963  -0.048596  -0.000510   0.000217  -0.000002
    18  C    0.000094  -0.007193  -0.079045   0.005174  -0.000212  -0.000001
    19  H    0.000018  -0.000032   0.000701  -0.000120   0.000009   0.000000
    20  H    0.000004  -0.000120  -0.003981   0.000149  -0.000003   0.000000
    21  C   -0.000002   0.000176   0.004473  -0.000095   0.000001   0.000000
    22  H    0.000000  -0.000007  -0.000047  -0.000003   0.000000   0.000000
    23  H    0.000000  -0.000002   0.000030   0.000000   0.000000   0.000000
    24  C    0.000000   0.000002  -0.000106   0.000000   0.000000   0.000000
    25  H    0.000000  -0.000001   0.000000   0.000000   0.000000   0.000000
    26  H    0.000000   0.000000   0.000001   0.000000   0.000000   0.000000
    27  C    0.000000   0.000000   0.000000   0.000000   0.000000   0.000000
    28  H    0.000000   0.000000   0.000000   0.000000   0.000000   0.000000
    29  H    0.000000   0.000000   0.000000   0.000000   0.000000   0.000000
    30  C    0.000000   0.000000   0.000000   0.000000   0.000000   0.000000
    31  H    0.000000   0.000000   0.000000   0.000000   0.000000   0.000000
    32  H    0.000000   0.000000   0.000000   0.000000   0.000000   0.000000
    33  H    0.000000   0.000000   0.000000   0.000000   0.000000   0.000000
              7          8          9         10         11         12
     1  C    0.393008  -0.042666  -0.042124   0.003380   0.003471   0.003701
     2  C   -0.044073   0.392641   0.395160  -0.040250   0.004102   0.003267
     3  C    0.003647  -0.043289  -0.045791   0.407652  -0.047187  -0.043613
     4  C    0.003652   0.003302   0.003867  -0.038663   0.397117   0.391857
     5  C   -0.043466   0.003619   0.003509   0.003228  -0.043231  -0.042070
     6  H   -0.022583  -0.005261   0.002033  -0.000087  -0.000049  -0.000107
     7  H    0.513069   0.002257  -0.004715  -0.000052  -0.000101  -0.000057
     8  H    0.002257   0.511360  -0.022704  -0.004489  -0.000061  -0.000100
     9  H   -0.004715  -0.022704   0.505137   0.002012  -0.000102  -0.000057
    10  H   -0.000052  -0.004489   0.002012   0.504741   0.001975  -0.004238
    11  H   -0.000101  -0.000061  -0.000102   0.001975   0.510994  -0.023005
    12  H   -0.000057  -0.000100  -0.000057  -0.004238  -0.023005   0.512432
    13  H   -0.005251  -0.000056  -0.000102  -0.000048  -0.004953   0.002188
    14  H    0.002220  -0.000106  -0.000049  -0.000094   0.002162  -0.005384
    15  C   -0.000167   0.003186  -0.008564  -0.044790  -0.007340   0.003160
    16  H    0.000002  -0.000077   0.000261  -0.001221   0.001367   0.000033
    17  H   -0.000024  -0.000008   0.000938   0.003128   0.001164   0.000014
    18  C    0.000008   0.000028  -0.002149  -0.003170   0.000256  -0.000090
    19  H   -0.000008  -0.000075   0.002449   0.000133  -0.000001   0.000000
    20  H    0.000000  -0.000016   0.000185   0.003135   0.000007  -0.000004
    21  C    0.000000   0.000000   0.000100   0.000049  -0.000011   0.000001
    22  H    0.000000   0.000000  -0.000002   0.000031   0.000000   0.000000
    23  H    0.000000   0.000000  -0.000003   0.000000   0.000000   0.000000
    24  C    0.000000   0.000000  -0.000002  -0.000004   0.000000   0.000000
    25  H    0.000000   0.000000  -0.000003   0.000000   0.000000   0.000000
    26  H    0.000000   0.000000   0.000000  -0.000001   0.000000   0.000000
    27  C    0.000000   0.000000   0.000000   0.000000   0.000000   0.000000
    28  H    0.000000   0.000000   0.000000   0.000000   0.000000   0.000000
    29  H    0.000000   0.000000   0.000000   0.000000   0.000000   0.000000
    30  C    0.000000   0.000000   0.000000   0.000000   0.000000   0.000000
    31  H    0.000000   0.000000   0.000000   0.000000   0.000000   0.000000
    32  H    0.000000   0.000000   0.000000   0.000000   0.000000   0.000000
    33  H    0.000000   0.000000   0.000000   0.000000   0.000000   0.000000
             13         14         15         16         17         18
     1  C   -0.043051  -0.042932   0.006700  -0.000151   0.000494   0.000094
     2  C    0.003638   0.003595  -0.085641   0.004053  -0.000963  -0.007193
     3  C    0.003752   0.003459   0.248132  -0.046808  -0.048596  -0.079045
     4  C   -0.043232  -0.042436  -0.079802  -0.001836  -0.000510   0.005174
     5  C    0.392403   0.392698   0.005775   0.000072   0.000217  -0.000212
     6  H    0.002121  -0.005217  -0.000061   0.000001  -0.000002  -0.000001
     7  H   -0.005251   0.002220  -0.000167   0.000002  -0.000024   0.000008
     8  H   -0.000056  -0.000106   0.003186  -0.000077  -0.000008   0.000028
     9  H   -0.000102  -0.000049  -0.008564   0.000261   0.000938  -0.002149
    10  H   -0.000048  -0.000094  -0.044790  -0.001221   0.003128  -0.003170
    11  H   -0.004953   0.002162  -0.007340   0.001367   0.001164   0.000256
    12  H    0.002188  -0.005384   0.003160   0.000033   0.000014  -0.000090
    13  H    0.512161  -0.022472  -0.000168   0.000003  -0.000005   0.000002
    14  H   -0.022472   0.510554  -0.000060   0.000000  -0.000003   0.000001
    15  C   -0.000168  -0.000060   5.482271   0.397387   0.389435   0.233020
    16  H    0.000003   0.000000   0.397387   0.509054  -0.024090  -0.047949
    17  H   -0.000005  -0.000003   0.389435  -0.024090   0.518636  -0.045120
    18  C    0.000002   0.000001   0.233020  -0.047949  -0.045120   5.505720
    19  H    0.000000   0.000000  -0.043678   0.002950  -0.003200   0.387856
    20  H    0.000000   0.000000  -0.049095   0.000831   0.003109   0.392144
    21  C    0.000000   0.000000  -0.075283  -0.004286   0.001156   0.250961
    22  H    0.000000   0.000000  -0.001844   0.002318   0.000062  -0.045471
    23  H    0.000000   0.000000  -0.001083   0.000281   0.000949  -0.047001
    24  C    0.000000   0.000000   0.004753   0.000129  -0.000102  -0.083372
    25  H    0.000000   0.000000  -0.000055   0.000000   0.000006  -0.001249
    26  H    0.000000   0.000000  -0.000017   0.000003  -0.000001  -0.001172
    27  C    0.000000   0.000000  -0.000092  -0.000003   0.000001   0.004622
    28  H    0.000000   0.000000   0.000000  -0.000001   0.000000  -0.000038
    29  H    0.000000   0.000000   0.000001   0.000000   0.000000  -0.000032
    30  C    0.000000   0.000000   0.000000   0.000000   0.000000  -0.000099
    31  H    0.000000   0.000000   0.000000   0.000000   0.000000   0.000001
    32  H    0.000000   0.000000   0.000000   0.000000   0.000000   0.000000
    33  H    0.000000   0.000000   0.000000   0.000000   0.000000   0.000000
             19         20         21         22         23         24
     1  C    0.000018   0.000004  -0.000002   0.000000   0.000000   0.000000
     2  C   -0.000032  -0.000120   0.000176  -0.000007  -0.000002   0.000002
     3  C    0.000701  -0.003981   0.004473  -0.000047   0.000030  -0.000106
     4  C   -0.000120   0.000149  -0.000095  -0.000003   0.000000   0.000000
     5  C    0.000009  -0.000003   0.000001   0.000000   0.000000   0.000000
     6  H    0.000000   0.000000   0.000000   0.000000   0.000000   0.000000
     7  H   -0.000008   0.000000   0.000000   0.000000   0.000000   0.000000
     8  H   -0.000075  -0.000016   0.000000   0.000000   0.000000   0.000000
     9  H    0.002449   0.000185   0.000100  -0.000002  -0.000003  -0.000002
    10  H    0.000133   0.003135   0.000049   0.000031   0.000000  -0.000004
    11  H   -0.000001   0.000007  -0.000011   0.000000   0.000000   0.000000
    12  H    0.000000  -0.000004   0.000001   0.000000   0.000000   0.000000
    13  H    0.000000   0.000000   0.000000   0.000000   0.000000   0.000000
    14  H    0.000000   0.000000   0.000000   0.000000   0.000000   0.000000
    15  C   -0.043678  -0.049095  -0.075283  -0.001844  -0.001083   0.004753
    16  H    0.002950   0.000831  -0.004286   0.002318   0.000281   0.000129
    17  H   -0.003200   0.003109   0.001156   0.000062   0.000949  -0.000102
    18  C    0.387856   0.392144   0.250961  -0.045471  -0.047001  -0.083372
    19  H    0.513664  -0.025286  -0.045909   0.003201  -0.001215  -0.001437
    20  H   -0.025286   0.513929  -0.045741  -0.001930   0.003236  -0.000892
    21  C   -0.045909  -0.045741   5.460914   0.389027   0.389398   0.253371
    22  H    0.003201  -0.001930   0.389027   0.518950  -0.025802  -0.046363
    23  H   -0.001215   0.003236   0.389398  -0.025802   0.519800  -0.046530
    24  C   -0.001437  -0.000892   0.253371  -0.046363  -0.046530   5.478869
    25  H    0.002425   0.000088  -0.045870   0.003251  -0.001686   0.387525
    26  H    0.000095   0.002061  -0.046098  -0.001577   0.003274   0.387842
    27  C   -0.000013  -0.000045  -0.080735  -0.001221  -0.001131   0.251476
    28  H    0.000000   0.000006  -0.001208   0.002292   0.000103  -0.047110
    29  H    0.000005  -0.000001  -0.001186   0.000104   0.002220  -0.047172
    30  C    0.000000   0.000000   0.004549  -0.000029  -0.000035  -0.088102
    31  H    0.000000   0.000000  -0.000087   0.000001   0.000001   0.004139
    32  H   -0.000001   0.000000  -0.000043   0.000000   0.000005  -0.001914
    33  H    0.000000  -0.000001  -0.000042   0.000004   0.000000  -0.001905
             25         26         27         28         29         30
     1  C    0.000000   0.000000   0.000000   0.000000   0.000000   0.000000
     2  C   -0.000001   0.000000   0.000000   0.000000   0.000000   0.000000
     3  C    0.000000   0.000001   0.000000   0.000000   0.000000   0.000000
     4  C    0.000000   0.000000   0.000000   0.000000   0.000000   0.000000
     5  C    0.000000   0.000000   0.000000   0.000000   0.000000   0.000000
     6  H    0.000000   0.000000   0.000000   0.000000   0.000000   0.000000
     7  H    0.000000   0.000000   0.000000   0.000000   0.000000   0.000000
     8  H    0.000000   0.000000   0.000000   0.000000   0.000000   0.000000
     9  H   -0.000003   0.000000   0.000000   0.000000   0.000000   0.000000
    10  H    0.000000  -0.000001   0.000000   0.000000   0.000000   0.000000
    11  H    0.000000   0.000000   0.000000   0.000000   0.000000   0.000000
    12  H    0.000000   0.000000   0.000000   0.000000   0.000000   0.000000
    13  H    0.000000   0.000000   0.000000   0.000000   0.000000   0.000000
    14  H    0.000000   0.000000   0.000000   0.000000   0.000000   0.000000
    15  C   -0.000055  -0.000017  -0.000092   0.000000   0.000001   0.000000
    16  H    0.000000   0.000003  -0.000003  -0.000001   0.000000   0.000000
    17  H    0.000006  -0.000001   0.000001   0.000000   0.000000   0.000000
    18  C   -0.001249  -0.001172   0.004622  -0.000038  -0.000032  -0.000099
    19  H    0.002425   0.000095  -0.000013   0.000000   0.000005   0.000000
    20  H    0.000088   0.002061  -0.000045   0.000006  -0.000001   0.000000
    21  C   -0.045870  -0.046098  -0.080735  -0.001208  -0.001186   0.004549
    22  H    0.003251  -0.001577  -0.001221   0.002292   0.000104  -0.000029
    23  H   -0.001686   0.003274  -0.001131   0.000103   0.002220  -0.000035
    24  C    0.387525   0.387842   0.251476  -0.047110  -0.047172  -0.088102
    25  H    0.519970  -0.025884  -0.046055   0.003309  -0.001709  -0.001065
    26  H   -0.025884   0.519797  -0.046247  -0.001753   0.003310  -0.000949
    27  C   -0.046055  -0.046247   5.456641   0.388629   0.388704   0.252978
    28  H    0.003309  -0.001753   0.388629   0.519475  -0.025998  -0.043685
    29  H   -0.001709   0.003310   0.388704  -0.025998   0.519454  -0.043718
    30  C   -0.001065  -0.000949   0.252978  -0.043685  -0.043718   5.367847
    31  H   -0.000027  -0.000031  -0.043804  -0.001577  -0.001565   0.381500
    32  H    0.002578   0.000044  -0.047088   0.003323  -0.001878   0.379580
    33  H    0.000043   0.002544  -0.047073  -0.001867   0.003324   0.379581
             31         32         33
     1  C    0.000000   0.000000   0.000000
     2  C    0.000000   0.000000   0.000000
     3  C    0.000000   0.000000   0.000000
     4  C    0.000000   0.000000   0.000000
     5  C    0.000000   0.000000   0.000000
     6  H    0.000000   0.000000   0.000000
     7  H    0.000000   0.000000   0.000000
     8  H    0.000000   0.000000   0.000000
     9  H    0.000000   0.000000   0.000000
    10  H    0.000000   0.000000   0.000000
    11  H    0.000000   0.000000   0.000000
    12  H    0.000000   0.000000   0.000000
    13  H    0.000000   0.000000   0.000000
    14  H    0.000000   0.000000   0.000000
    15  C    0.000000   0.000000   0.000000
    16  H    0.000000   0.000000   0.000000
    17  H    0.000000   0.000000   0.000000
    18  C    0.000001   0.000000   0.000000
    19  H    0.000000  -0.000001   0.000000
    20  H    0.000000   0.000000  -0.000001
    21  C   -0.000087  -0.000043  -0.000042
    22  H    0.000001   0.000000   0.000004
    23  H    0.000001   0.000005   0.000000
    24  C    0.004139  -0.001914  -0.001905
    25  H   -0.000027   0.002578   0.000043
    26  H   -0.000031   0.000044   0.002544
    27  C   -0.043804  -0.047088  -0.047073
    28  H   -0.001577   0.003323  -0.001867
    29  H   -0.001565  -0.001878   0.003324
    30  C    0.381500   0.379580   0.379581
    31  H    0.513644  -0.025544  -0.025545
    32  H   -0.025544   0.518752  -0.026829
    33  H   -0.025545  -0.026829   0.518679
 Mulliken atomic charges:
              1
     1  C   -0.408241
     2  C   -0.393072
     3  C   -0.272777
     4  C   -0.391887
     5  C   -0.408724
     6  H    0.204395
     7  H    0.202633
     8  H    0.202515
     9  H    0.210718
    10  H    0.207644
    11  H    0.203427
    12  H    0.202069
    13  H    0.203072
    14  H    0.204063
    15  C   -0.376077
    16  H    0.207676
    17  H    0.203313
    18  C   -0.416521
    19  H    0.207470
    20  H    0.208230
    21  C   -0.407580
    22  H    0.205055
    23  H    0.205188
    24  C   -0.403095
    25  H    0.204408
    26  H    0.204760
    27  C   -0.429543
    28  H    0.206101
    29  H    0.206138
    30  C   -0.588354
    31  H    0.198894
    32  H    0.199015
    33  H    0.199087
 Sum of Mulliken atomic charges =   0.00000
 Mulliken charges with hydrogens summed into heavy atoms:
              1
     1  C   -0.001213
     2  C    0.020161
     3  C   -0.065133
     4  C    0.013609
     5  C   -0.001590
    15  C    0.034912
    18  C   -0.000821
    21  C    0.002664
    24  C    0.006074
    27  C   -0.017304
    30  C    0.008642
 Sum of Mulliken charges with hydrogens summed into heavy atoms =   0.00000
 Electronic spatial extent (au):  <R**2>=           3872.4691
 Charge=              0.0000 electrons
 Dipole moment (field-independent basis, Debye):
    X=              0.0168    Y=             -0.0468    Z=              0.0022  Tot=              0.0498
 Quadrupole moment (field-independent basis, Debye-Ang):
   XX=            -77.4548   YY=            -75.2973   ZZ=            -73.0413
   XY=             -0.4603   XZ=             -0.4562   YZ=             -0.2480
 Traceless Quadrupole moment (field-independent basis, Debye-Ang):
   XX=             -2.1904   YY=             -0.0328   ZZ=              2.2232
   XY=             -0.4603   XZ=             -0.4562   YZ=             -0.2480
 Octapole moment (field-independent basis, Debye-Ang**2):
  XXX=             -4.0563  YYY=             -0.9103  ZZZ=             -0.0539  XYY=              2.2285
  XXY=             -2.8271  XXZ=              2.8168  XZZ=              0.6118  YZZ=              0.4914
  YYZ=             -0.0357  XYZ=             -1.5987
 Hexadecapole moment (field-independent basis, Debye-Ang**3):
 XXXX=          -4993.6180 YYYY=           -409.7311 ZZZZ=           -179.6752 XXXY=            -31.1799
 XXXZ=            -27.8333 YYYX=              0.0478 YYYZ=             -1.2827 ZZZX=              3.1813
 ZZZY=              0.8462 XXYY=           -891.0785 XXZZ=           -829.8561 YYZZ=            -94.1029
 XXYZ=              1.5170 YYXZ=             -2.6306 ZZXY=              1.9157
 N-N= 6.250495906205D+02 E-N=-2.242403795912D+03  KE= 4.267384818034D+02
 1\1\GINC-NODE02\SP\RHF\3-21G\C11H22\SC4102.09\25-Jun-2022\0\\# hf/3-21
 g geom=connectivity\\cyclopentanylhexane\\0,1\C,0,-2.50764523,0.423037
 71,0.\C,0,-0.98578723,0.42303771,0.\C,0,-0.51701423,1.87090271,0.\C,0,
 -1.74475423,2.76047071,-0.133186\C,0,-2.97685123,1.86735771,-0.10359\H
 ,0,-2.89960723,-0.17940729,-0.857508\H,0,-2.89776023,-0.04737329,0.937
 504\H,0,-0.59716023,-0.11156029,-0.90328\H,0,-0.59242023,-0.11769429,0
 .896837\H,0,0.19494677,2.05407871,-0.843216\H,0,-1.78043123,3.50654071
 ,0.699798\H,0,-1.70563323,3.33805571,-1.090922\H,0,-3.62922923,2.12915
 971,0.767074\H,0,-3.58859723,2.01497971,-1.028793\C,0,0.23554991,2.189
 70447,1.30522514\H,0,0.55226963,3.21169192,1.29381168\H,0,-0.41355084,
 2.02676564,2.14010186\C,0,1.46649384,1.27211837,1.42527832\H,0,1.18690
 002,0.36243278,1.91435852\H,0,1.84296939,1.05075894,0.44846403\C,0,2.5
 58,1.98239181,2.24730383\H,0,2.89631188,2.84851572,1.71789431\H,0,2.15
 619409,2.2774305,3.19409007\C,0,3.74088961,1.02145896,2.46861864\H,0,3
 .40604747,0.16291403,3.01238453\H,0,4.132259,0.71351256,1.52157111\C,0
 ,4.84242175,1.73940188,3.27035731\H,0,5.18138221,2.59462141,2.72390935
 \H,0,4.44940965,2.05252936,4.21502268\C,0,6.02174736,0.77579835,3.4989
 6035\H,0,6.78765331,1.27504005,4.05487924\H,0,5.68306938,-0.07880365,4
 .04654839\H,0,6.41392061,0.46164218,2.5542879\\Version=EM64L-G09RevC.0
 1\State=1-A\HF=-426.9752751\RMSD=6.618e-09\Dipole=0.0064195,0.018162,0
 .0035059\Quadrupole=-1.3169058,-0.0126369,1.3295427,0.4766362,-0.98023
 99,-0.1389653\PG=C01 [X(C11H22)]\\@


 THIS CURIOUS WORLD WHICH WE INHABIT IS MORE WONDERFUL THAN IT IS CONVENIENT;
 MORE BEAUTIFUL THAN IT IS USEFUL;
 IT IS MORE TO BE ADMIRED THAN IT IS TO BE USED.

                                                                 -- THOREAU
 Job cpu time:  0 days  0 hours  0 minutes 10.0 seconds.
 File lengths (MBytes):  RWF=     15 Int=      0 D2E=      0 Chk=      3 Scr=      1
 Normal termination of Gaussian 09 at Sat Jun 25 17:02:16 2022.
