 Entering Gaussian System, Link 0=g09
 Input=/home/iiit/sc4102.09/Problem1/f.com
 Output=/home/iiit/sc4102.09/Problem1/f.log
 Initial command:
 /global/g09-revC/l1.exe /scratch/Gau-3132.inp -scrdir=/scratch/
 Entering Link 1 = /global/g09-revC/l1.exe PID=      3135.
  
 Copyright (c) 1988,1990,1992,1993,1995,1998,2003,2009,2011,
            Gaussian, Inc.  All Rights Reserved.
  
 This is part of the Gaussian(R) 09 program.  It is based on
 the Gaussian(R) 03 system (copyright 2003, Gaussian, Inc.),
 the Gaussian(R) 98 system (copyright 1998, Gaussian, Inc.),
 the Gaussian(R) 94 system (copyright 1995, Gaussian, Inc.),
 the Gaussian 92(TM) system (copyright 1992, Gaussian, Inc.),
 the Gaussian 90(TM) system (copyright 1990, Gaussian, Inc.),
 the Gaussian 88(TM) system (copyright 1988, Gaussian, Inc.),
 the Gaussian 86(TM) system (copyright 1986, Carnegie Mellon
 University), and the Gaussian 82(TM) system (copyright 1983,
 Carnegie Mellon University). Gaussian is a federally registered
 trademark of Gaussian, Inc.
  
 This software contains proprietary and confidential information,
 including trade secrets, belonging to Gaussian, Inc.
  
 This software is provided under written license and may be
 used, copied, transmitted, or stored only in accord with that
 written license.
  
 The following legend is applicable only to US Government
 contracts under FAR:
  
                    RESTRICTED RIGHTS LEGEND
  
 Use, reproduction and disclosure by the US Government is
 subject to restrictions as set forth in subparagraphs (a)
 and (c) of the Commercial Computer Software - Restricted
 Rights clause in FAR 52.227-19.
  
 Gaussian, Inc.
 340 Quinnipiac St., Bldg. 40, Wallingford CT 06492
  
  
 ---------------------------------------------------------------
 Warning -- This program may not be used in any manner that
 competes with the business of Gaussian, Inc. or will provide
 assistance to any competitor of Gaussian, Inc.  The licensee
 of this program is prohibited from giving any competitor of
 Gaussian, Inc. access to this program.  By using this program,
 the user acknowledges that Gaussian, Inc. is engaged in the
 business of creating and licensing software in the field of
 computational chemistry and represents and warrants to the
 licensee that it is not a competitor of Gaussian, Inc. and that
 it will not use this program in any manner prohibited above.
 ---------------------------------------------------------------
  

 Cite this work as:
 Gaussian 09, Revision C.01,
 M. J. Frisch, G. W. Trucks, H. B. Schlegel, G. E. Scuseria, 
 M. A. Robb, J. R. Cheeseman, G. Scalmani, V. Barone, B. Mennucci, 
 G. A. Petersson, H. Nakatsuji, M. Caricato, X. Li, H. P. Hratchian, 
 A. F. Izmaylov, J. Bloino, G. Zheng, J. L. Sonnenberg, M. Hada, 
 M. Ehara, K. Toyota, R. Fukuda, J. Hasegawa, M. Ishida, T. Nakajima, 
 Y. Honda, O. Kitao, H. Nakai, T. Vreven, J. A. Montgomery, Jr., 
 J. E. Peralta, F. Ogliaro, M. Bearpark, J. J. Heyd, E. Brothers, 
 K. N. Kudin, V. N. Staroverov, T. Keith, R. Kobayashi, J. Normand, 
 K. Raghavachari, A. Rendell, J. C. Burant, S. S. Iyengar, J. Tomasi, 
 M. Cossi, N. Rega, J. M. Millam, M. Klene, J. E. Knox, J. B. Cross, 
 V. Bakken, C. Adamo, J. Jaramillo, R. Gomperts, R. E. Stratmann, 
 O. Yazyev, A. J. Austin, R. Cammi, C. Pomelli, J. W. Ochterski, 
 R. L. Martin, K. Morokuma, V. G. Zakrzewski, G. A. Voth, 
 P. Salvador, J. J. Dannenberg, S. Dapprich, A. D. Daniels, 
 O. Farkas, J. B. Foresman, J. V. Ortiz, J. Cioslowski, 
 and D. J. Fox, Gaussian, Inc., Wallingford CT, 2010.
 
 ******************************************
 Gaussian 09:  EM64L-G09RevC.01 23-Sep-2011
                29-Jun-2022 
 ******************************************
 %chk=f.chk
 ----------------------------
 # hf/3-21g geom=connectivity
 ----------------------------
 1/38=1,57=2/1;
 2/12=2,17=6,18=5,40=1/2;
 3/5=5,11=9,16=1,25=1,30=1/1,2,3;
 4//1;
 5/5=2,38=5/2;
 6/7=2,8=2,9=2,10=2,28=1/1;
 99/5=1,9=1/99;
 -
 f
 -
 Charge =  0 Multiplicity = 1
 Symbolic Z-Matrix:
 C                    -2.84176  -0.90649   0. 
 C                    -1.32665  -0.90649   0. 
 C                    -0.77472   0.50459   0. 
 C                    -1.32438   1.30912   1.16066 
 C                    -2.83951   1.30979   1.16017 
 C                    -3.39231  -0.10084   1.15888 
 H                     0.34388   0.4706    0.06271 
 H                    -0.9541   -1.45212   0.90656 
 H                    -0.95136  -1.45635  -0.90191 
 H                    -3.21444  -0.47346  -0.96539 
 H                    -0.95185   0.87428   2.12527 
 H                    -3.21483   1.85921   2.06229 
 H                    -3.21136   1.85639   0.25385 
 H                    -3.1263   -0.60656   2.12419 
 H                    -4.51086  -0.06577   1.09394 
 H                    -1.04334   1.01022  -0.96455 
 C                    -0.80777   2.75738   1.07549 
 C                    -1.29436   3.39962  -0.2369 
 H                    -0.93512   4.40577  -0.29624 
 H                    -0.92189   2.8383   -1.06822 
 H                    -2.36415   3.40103  -0.25809 
 C                     0.73192   2.75582   1.10622 
 H                     1.08416   3.72801   1.3813 
 H                     1.07365   2.03708   1.82143 
 H                     1.10774   2.50127   0.13726 
 C                    -1.34427   3.56497   2.27197 
 H                    -1.24843   2.98458   3.16576 
 H                    -0.78213   4.46987   2.37232 
 H                    -2.375     3.80159   2.10916 
 C                    -3.35777  -2.35484   0.08724 
 H                    -4.42757  -2.35419   0.0663 
 H                    -2.98511  -2.91689  -0.7435 
 H                    -3.01917  -2.79976   0.99954 
 
                          Input orientation:                          
 ---------------------------------------------------------------------
 Center     Atomic      Atomic             Coordinates (Angstroms)
 Number     Number       Type             X           Y           Z
 ---------------------------------------------------------------------
      1          6           0       -2.841757   -0.906491    0.000000
      2          6           0       -1.326651   -0.906491    0.000000
      3          6           0       -0.774720    0.504587    0.000000
      4          6           0       -1.324383    1.309124    1.160661
      5          6           0       -2.839508    1.309785    1.160172
      6          6           0       -3.392308   -0.100836    1.158876
      7          1           0        0.343879    0.470596    0.062714
      8          1           0       -0.954102   -1.452125    0.906562
      9          1           0       -0.951357   -1.456350   -0.901910
     10          1           0       -3.214445   -0.473462   -0.965385
     11          1           0       -0.951848    0.874279    2.125272
     12          1           0       -3.214828    1.859213    2.062286
     13          1           0       -3.211363    1.856386    0.253849
     14          1           0       -3.126304   -0.606558    2.124191
     15          1           0       -4.510856   -0.065775    1.093938
     16          1           0       -1.043338    1.010220   -0.964546
     17          6           0       -0.807771    2.757385    1.075487
     18          6           0       -1.294359    3.399624   -0.236901
     19          1           0       -0.935119    4.405767   -0.296245
     20          1           0       -0.921893    2.838300   -1.068216
     21          1           0       -2.364148    3.401034   -0.258094
     22          6           0        0.731921    2.755815    1.106217
     23          1           0        1.084159    3.728006    1.381304
     24          1           0        1.073652    2.037077    1.821434
     25          1           0        1.107739    2.501272    0.137265
     26          6           0       -1.344265    3.564974    2.271971
     27          1           0       -1.248425    2.984581    3.165759
     28          1           0       -0.782132    4.469871    2.372316
     29          1           0       -2.374996    3.801589    2.109159
     30          6           0       -3.357774   -2.354840    0.087243
     31          1           0       -4.427569   -2.354192    0.066296
     32          1           0       -2.985113   -2.916888   -0.743495
     33          1           0       -3.019171   -2.799760    0.999544
 ---------------------------------------------------------------------
                    Distance matrix (angstroms):
                    1          2          3          4          5
     1  C    0.000000
     2  C    1.515106   0.000000
     3  C    2.502755   1.515180   0.000000
     4  C    2.925493   2.501217   1.515435   0.000000
     5  C    2.501576   2.923459   2.501538   1.515125   0.000000
     6  C    1.514985   2.501802   2.925970   2.502859   1.515071
     7  H    3.471106   2.165865   1.120871   2.166037   3.470246
     8  H    2.163981   1.121768   2.163967   2.797529   3.353688
     9  H    2.165502   1.120996   2.165621   3.470042   3.933039
    10  H    1.121775   2.164081   2.800144   3.357085   2.799739
    11  H    3.355545   2.797928   2.164446   1.121761   2.164334
    12  H    3.470061   3.932856   3.470182   2.165481   1.120958
    13  H    2.799024   3.354112   2.798040   2.163908   1.121816
    14  H    2.164050   2.800160   3.358091   2.800919   2.164245
    15  H    2.165501   3.470254   3.934555   3.471082   2.165631
    16  H    2.799722   2.164347   1.121681   2.164448   2.798284
    17  C    4.326402   3.853556   2.496570   1.540000   2.496131
    18  C    4.581832   4.312747   2.950827   2.514810   2.950715
    19  H    5.651824   5.334899   3.915699   3.444314   3.915731
    20  H    4.341707   3.915146   2.570790   2.732813   3.313505
    21  H    4.341601   4.438219   3.313956   2.733142   2.571142
    22  C    5.235206   4.344413   2.926040   2.514809   3.853442
    23  H    6.228915   5.403570   3.969114   3.420636   4.614310
    24  H    5.226149   4.212323   3.013739   2.591738   4.034729
    25  H    5.218257   4.190220   2.747589   2.895474   4.248145
    26  C    5.234342   5.015592   3.853856   2.514809   2.925359
    27  H    5.263191   5.016831   4.049296   2.614067   3.059226
    28  H    6.226974   5.901665   4.620759   3.428187   3.960837
    29  H    5.180003   5.264370   4.228434   2.866325   2.706554
    30  C    1.540000   2.496155   3.854362   4.325684   3.853473
    31  H    2.148263   3.422853   4.639000   4.924153   4.140438
    32  H    2.148263   2.710162   4.140666   4.923719   4.637878
    33  H    2.148263   2.729136   4.117689   4.447606   4.116606
                    6          7          8          9         10
     6  C    0.000000
     7  H    3.935378   0.000000
     8  H    2.799016   2.468540   0.000000
     9  H    3.470230   2.514211   1.808479   0.000000
    10  H    2.164017   3.822290   3.093722   2.468130   0.000000
    11  H    2.800110   2.469011   2.626293   3.820427   4.060531
    12  H    2.165512   4.311721   4.172714   4.990262   3.822063
    13  H    2.163916   3.820562   4.058018   4.173443   2.629588
    14  H    1.121760   4.177573   2.629841   3.822280   3.093697
    15  H    1.120980   4.991950   3.821986   4.311281   2.467327
    16  H    3.355745   1.808543   3.093889   2.469079   2.629642
    17  C    3.854375   2.753436   4.215438   4.656852   4.516149
    18  C    4.313096   3.369391   4.996273   4.913285   4.383858
    19  H    5.335225   4.153343   5.980134   5.893345   5.426781
    20  H    4.438627   2.913280   4.723190   4.297969   4.029160
    21  H    3.915101   4.002974   5.186310   5.099476   4.029266
    22  C    5.017220   2.541988   4.537543   4.960679   5.503960
    23  H    5.894766   3.591297   5.586918   6.019464   6.452696
    24  H    4.995442   2.465670   4.138031   4.870451   5.697099
    25  H    5.297648   2.170872   4.524639   4.580669   5.361544
    26  C    4.344148   4.160027   5.214197   5.953284   5.503364
    27  H    4.259532   4.299354   4.987480   6.029598   5.734950
    28  H    5.401557   4.753563   6.103117   6.772687   6.441501
    29  H    4.143293   4.761904   5.573750   6.224083   5.332312
    30  C    2.496022   4.656815   2.695147   2.752554   2.160591
    31  H    2.709817   5.544921   3.685749   3.718547   2.464382
    32  H    3.422714   4.817386   2.998871   2.508870   2.464175
    33  H    2.729251   4.783617   2.467647   3.113862   3.051351
                   11         12         13         14         15
    11  H    0.000000
    12  H    2.468834   0.000000
    13  H    3.093892   1.808443   0.000000
    14  H    2.630806   2.468136   3.093785   0.000000
    15  H    3.822812   2.514551   2.467617   1.808550   0.000000
    16  H    3.094160   3.820716   2.626940   4.061159   4.173584
    17  C    2.160762   2.752164   2.695207   4.217995   4.656544
    18  C    3.474844   3.368579   2.509446   4.998026   4.911819
    19  H    4.281989   4.152671   3.461680   5.981906   5.891790
    20  H    3.749218   4.002025   2.820227   5.188249   5.097962
    21  H    3.749603   2.912908   1.834611   4.724083   4.295941
    22  C    2.722816   4.158701   4.133400   5.218019   5.953842
    23  H    3.583653   4.736815   4.819297   6.088376   6.766059
    24  H    2.355220   4.298918   4.566325   4.971930   6.011485
    25  H    3.292594   4.775199   4.368536   5.615479   6.250885
    26  C    2.723115   2.540196   3.236996   4.538632   4.959576
    27  H    2.371486   2.520088   3.688518   4.184205   4.923471
    28  H    3.608062   3.581851   4.149622   5.597038   6.009136
    29  H    3.254958   2.116681   2.815226   4.471739   4.533109
    30  C    4.513231   4.656122   4.217063   2.694295   2.753698
    31  H    5.171368   4.817416   4.386719   2.997073   2.509948
    32  H    5.170777   5.544035   4.881601   3.685266   3.719260
    33  H    4.363445   4.782649   4.719396   2.467072   3.115880
                   16         17         18         19         20
    16  H    0.000000
    17  C    2.696259   0.000000
    18  C    2.510324   1.540000   0.000000
    19  H    3.462380   2.148263   1.070000   0.000000
    20  H    1.835040   2.148263   1.070000   1.747303   0.000000
    21  H    2.821277   2.148263   1.070000   1.747303   1.747303
    22  C    3.238319   1.540000   2.514809   2.732813   2.733142
    23  H    4.173203   2.148263   2.895474   2.711276   3.288764
    24  H    3.646610   2.148263   3.420636   3.759045   3.601976
    25  H    2.839781   2.148263   2.591739   2.826359   2.384570
    26  C    4.134292   1.540000   2.514809   2.733142   3.444314
    27  H    4.582530   2.148263   3.428187   3.755450   4.249066
    28  H    4.813737   2.148263   2.866325   2.673711   3.810356
    29  H    4.360358   2.148263   2.614068   2.867795   3.624244
    30  C    4.217405   5.797756   6.121813   7.191810   5.851265
    31  H    4.882102   6.344258   6.558607   7.617459   6.367012
    32  H    4.386517   6.344043   6.558476   7.617334   6.122459
    33  H    4.719907   5.981464   6.552567   7.611962   6.360969
                   21         22         23         24         25
    21  H    0.000000
    22  C    3.444314   0.000000
    23  H    3.832149   1.070000   0.000000
    24  H    4.243028   1.070000   1.747303   0.000000
    25  H    3.608307   1.070000   1.747303   1.747303   0.000000
    26  C    2.732813   2.514810   2.591739   2.895475   3.420637
    27  H    3.625058   2.866325   3.029507   2.845525   3.867412
    28  H    3.250268   2.614068   2.239534   3.109002   3.527385
    29  H    2.400927   3.428187   3.535667   3.884515   4.208163
    30  C    5.851208   6.624403   7.642407   6.475638   6.597358
    31  H    6.122545   7.335799   8.312733   7.254459   7.363436
    32  H    6.366895   7.029747   8.076408   6.898855   6.847162
    33  H    6.360862   6.704215   7.719767   6.389186   6.773172
                   26         27         28         29         30
    26  C    0.000000
    27  H    1.070000   0.000000
    28  H    1.070000   1.747303   0.000000
    29  H    1.070000   1.747303   1.747303   0.000000
    30  C    6.623553   6.514294   7.644094   6.554053   0.000000
    31  H    7.029103   6.943783   8.073089   6.802939   1.070000
    32  H    7.334845   7.288737   8.314181   7.324467   1.070000
    33  H    6.703300   6.425467   7.728932   6.724880   1.070000
                   31         32         33
    31  H    0.000000
    32  H    1.747303   0.000000
    33  H    1.747303   1.747303   0.000000
 Stoichiometry    C11H22
 Framework group  C1[X(C11H22)]
 Deg. of freedom    93
 Full point group                 C1      NOp   1
 Largest Abelian subgroup         C1      NOp   1
 Largest concise Abelian subgroup C1      NOp   1
                         Standard orientation:                         
 ---------------------------------------------------------------------
 Center     Atomic      Atomic             Coordinates (Angstroms)
 Number     Number       Type             X           Y           Z
 ---------------------------------------------------------------------
      1          6           0        2.355095    0.000021    0.334335
      2          6           0        1.684705   -1.250569   -0.196841
      3          6           0        0.199898   -1.251506    0.105012
      4          6           0       -0.469435   -0.000561   -0.427597
      5          6           0        0.200469    1.250032    0.104242
      6          6           0        1.685488    1.251232   -0.196021
      7          1           0       -0.276253   -2.156694   -0.353537
      8          1           0        1.839292   -1.313632   -1.306115
      9          1           0        2.161535   -2.155588    0.261643
     10          1           0        2.309970   -0.000350    1.455202
     11          1           0       -0.422509   -0.001007   -1.548375
     12          1           0       -0.276007    2.155027   -0.354561
     13          1           0        0.044682    1.312944    1.213405
     14          1           0        1.841740    1.316208   -1.304943
     15          1           0        2.161069    2.155692    0.264817
     16          1           0        0.044744   -1.313997    1.214153
     17          6           0       -1.956245    0.000153   -0.026356
     18          6           0       -2.073556    0.000347    1.509169
     19          1           0       -3.106600    0.000485    1.787953
     20          1           0       -1.597877   -0.873307    1.903326
     21          1           0       -1.597699    0.873996    1.903120
     22          6           0       -2.641567   -1.256992   -0.593384
     23          1           0       -3.700791   -1.106986   -0.614434
     24          1           0       -2.287324   -1.439088   -1.586486
     25          1           0       -2.412753   -2.098373    0.026795
     26          6           0       -2.640423    1.257818   -0.593613
     27          1           0       -2.330582    1.406035   -1.606989
     28          1           0       -3.702460    1.131890   -0.560154
     29          1           0       -2.363596    2.109360   -0.007830
     30          6           0        3.841355   -0.000253   -0.068942
     31          1           0        4.317841    0.873270    0.324528
     32          1           0        4.317482   -0.874033    0.324391
     33          1           0        3.921401   -0.000185   -1.135943
 ---------------------------------------------------------------------
 Rotational constants (GHZ):      2.2249660      0.6398386      0.5759905
 Standard basis: 3-21G (6D, 7F)
 There are   143 symmetry adapted basis functions of A   symmetry.
 Integral buffers will be    131072 words long.
 Raffenetti 1 integral format.
 Two-electron integral symmetry is turned on.
   143 basis functions,   231 primitive gaussians,   143 cartesian basis functions
    44 alpha electrons       44 beta electrons
       nuclear repulsion energy       696.7209298059 Hartrees.
 NAtoms=   33 NActive=   33 NUniq=   33 SFac= 1.00D+00 NAtFMM=   60 NAOKFM=F Big=F
 One-electron integrals computed using PRISM.
 NBasis=   143 RedAO= T  NBF=   143
 NBsUse=   143 1.00D-06 NBFU=   143
 Harris functional with IExCor=  205 diagonalized for initial guess.
 ExpMin= 1.83D-01 ExpMax= 1.72D+02 ExpMxC= 1.72D+02 IAcc=1 IRadAn=         1 AccDes= 0.00D+00
 HarFok:  IExCor=  205 AccDes= 0.00D+00 IRadAn=         1 IDoV= 1
 ScaDFX=  1.000000  1.000000  1.000000  1.000000
 FoFCou: FMM=F IPFlag=           0 FMFlag=      100000 FMFlg1=           0
         NFxFlg=           0 DoJE=T BraDBF=F KetDBF=T FulRan=T
         Omega=  0.000000  0.000000  1.000000  0.000000  0.000000 ICntrl=     500 IOpCl=  0
         NMat0=    1 NMatS0=    1 NMatT0=    0 NMatD0=    1 NMtDS0=    0 NMtDT0=    0
         I1Cent=           4 NGrid=           0.
 Petite list used in FoFCou.
 Initial guess orbital symmetries:
       Occupied  (A) (A) (A) (A) (A) (A) (A) (A) (A) (A) (A) (A)
                 (A) (A) (A) (A) (A) (A) (A) (A) (A) (A) (A) (A)
                 (A) (A) (A) (A) (A) (A) (A) (A) (A) (A) (A) (A)
                 (A) (A) (A) (A) (A) (A) (A) (A)
       Virtual   (A) (A) (A) (A) (A) (A) (A) (A) (A) (A) (A) (A)
                 (A) (A) (A) (A) (A) (A) (A) (A) (A) (A) (A) (A)
                 (A) (A) (A) (A) (A) (A) (A) (A) (A) (A) (A) (A)
                 (A) (A) (A) (A) (A) (A) (A) (A) (A) (A) (A) (A)
                 (A) (A) (A) (A) (A) (A) (A) (A) (A) (A) (A) (A)
                 (A) (A) (A) (A) (A) (A) (A) (A) (A) (A) (A) (A)
                 (A) (A) (A) (A) (A) (A) (A) (A) (A) (A) (A) (A)
                 (A) (A) (A) (A) (A) (A) (A) (A) (A) (A) (A) (A)
                 (A) (A) (A)
 The electronic state of the initial guess is 1-A.
 Requested convergence on RMS density matrix=1.00D-08 within 128 cycles.
 Requested convergence on MAX density matrix=1.00D-06.
 Requested convergence on             energy=1.00D-06.
 No special actions if energy rises.
 Integral accuracy reduced to 1.0D-05 until final iterations.
 Initial convergence to 1.0D-05 achieved.  Increase integral accuracy.
 SCF Done:  E(RHF) =  -426.988908698     A.U. after   11 cycles
             Convg  =    0.9296D-08             -V/T =  2.0006

 **********************************************************************

            Population analysis using the SCF density.

 **********************************************************************

 Orbital symmetries:
       Occupied  (A) (A) (A) (A) (A) (A) (A) (A) (A) (A) (A) (A)
                 (A) (A) (A) (A) (A) (A) (A) (A) (A) (A) (A) (A)
                 (A) (A) (A) (A) (A) (A) (A) (A) (A) (A) (A) (A)
                 (A) (A) (A) (A) (A) (A) (A) (A)
       Virtual   (A) (A) (A) (A) (A) (A) (A) (A) (A) (A) (A) (A)
                 (A) (A) (A) (A) (A) (A) (A) (A) (A) (A) (A) (A)
                 (A) (A) (A) (A) (A) (A) (A) (A) (A) (A) (A) (A)
                 (A) (A) (A) (A) (A) (A) (A) (A) (A) (A) (A) (A)
                 (A) (A) (A) (A) (A) (A) (A) (A) (A) (A) (A) (A)
                 (A) (A) (A) (A) (A) (A) (A) (A) (A) (A) (A) (A)
                 (A) (A) (A) (A) (A) (A) (A) (A) (A) (A) (A) (A)
                 (A) (A) (A) (A) (A) (A) (A) (A) (A) (A) (A) (A)
                 (A) (A) (A)
 The electronic state is 1-A.
 Alpha  occ. eigenvalues --  -11.16708 -11.16163 -11.15826 -11.15714 -11.15662
 Alpha  occ. eigenvalues --  -11.15460 -11.15411 -11.13966 -11.13805 -11.13773
 Alpha  occ. eigenvalues --  -11.13661  -1.14664  -1.09704  -1.01672  -1.00550
 Alpha  occ. eigenvalues --   -0.93683  -0.93521  -0.91658  -0.82604  -0.81172
 Alpha  occ. eigenvalues --   -0.74885  -0.71744  -0.64920  -0.63088  -0.61272
 Alpha  occ. eigenvalues --   -0.59976  -0.59578  -0.58864  -0.57438  -0.56444
 Alpha  occ. eigenvalues --   -0.53830  -0.53551  -0.52577  -0.51727  -0.51117
 Alpha  occ. eigenvalues --   -0.48706  -0.47432  -0.46877  -0.45712  -0.44498
 Alpha  occ. eigenvalues --   -0.44309  -0.42459  -0.40212  -0.39775
 Alpha virt. eigenvalues --    0.24833   0.25647   0.26422   0.29403   0.30914
 Alpha virt. eigenvalues --    0.31232   0.31721   0.31801   0.32570   0.34010
 Alpha virt. eigenvalues --    0.34199   0.34315   0.36181   0.36332   0.36888
 Alpha virt. eigenvalues --    0.37112   0.38175   0.39567   0.40498   0.40713
 Alpha virt. eigenvalues --    0.41673   0.42693   0.44449   0.45535   0.45896
 Alpha virt. eigenvalues --    0.47319   0.47852   0.49264   0.49411   0.51497
 Alpha virt. eigenvalues --    0.53082   0.53840   0.56093   0.88791   0.89628
 Alpha virt. eigenvalues --    0.90993   0.91185   0.91624   0.94018   0.96992
 Alpha virt. eigenvalues --    0.97885   0.99469   1.00461   1.03276   1.05214
 Alpha virt. eigenvalues --    1.06789   1.07629   1.10862   1.11501   1.13049
 Alpha virt. eigenvalues --    1.13519   1.15255   1.15637   1.18208   1.20780
 Alpha virt. eigenvalues --    1.23590   1.24363   1.26645   1.26923   1.29176
 Alpha virt. eigenvalues --    1.30304   1.36193   1.36475   1.36928   1.37408
 Alpha virt. eigenvalues --    1.38364   1.39782   1.40005   1.40922   1.41026
 Alpha virt. eigenvalues --    1.42003   1.42144   1.43230   1.44007   1.44433
 Alpha virt. eigenvalues --    1.45109   1.45555   1.48487   1.50173   1.50252
 Alpha virt. eigenvalues --    1.53338   1.54358   1.56630   1.57425   1.68741
 Alpha virt. eigenvalues --    1.75359   1.77744   1.79811   1.90051   2.02250
 Alpha virt. eigenvalues --    2.22402   2.27220   2.31368   2.32888   2.33601
 Alpha virt. eigenvalues --    2.64350   2.81454   2.84500   2.93580
          Condensed to atoms (all electrons):
              1          2          3          4          5          6
     1  C    5.673079   0.230960  -0.091222   0.001541  -0.091558   0.230829
     2  C    0.230960   5.493299   0.242093  -0.089693   0.006261  -0.094886
     3  C   -0.091222   0.242093   5.528301   0.235862  -0.095237   0.006268
     4  C    0.001541  -0.089693   0.235862   5.716715   0.235227  -0.089054
     5  C   -0.091558   0.006261  -0.095237   0.235227   5.529828   0.241851
     6  C    0.230829  -0.094886   0.006268  -0.089054   0.241851   5.492978
     7  H    0.003762  -0.041149   0.395980  -0.044080   0.003521  -0.000260
     8  H   -0.051443   0.387122  -0.047726  -0.001769   0.000445  -0.000672
     9  H   -0.045027   0.395139  -0.043165   0.003963  -0.000302   0.003799
    10  H    0.397838  -0.046140  -0.000671   0.000235  -0.000664  -0.046128
    11  H    0.000293  -0.001019  -0.043803   0.403516  -0.043821  -0.000990
    12  H    0.003779  -0.000261   0.003527  -0.044164   0.396120  -0.041225
    13  H   -0.001337   0.000390  -0.000221  -0.050468   0.387002  -0.047004
    14  H   -0.051413  -0.000667   0.000438  -0.001732  -0.047708   0.387200
    15  H   -0.045034   0.003800  -0.000302   0.003946  -0.043177   0.395162
    16  H   -0.001343  -0.046991   0.387005  -0.050374  -0.000194   0.000389
    17  C   -0.000263   0.004651  -0.085675   0.248278  -0.085893   0.004626
    18  C    0.000018   0.000109  -0.008158  -0.090452  -0.008143   0.000104
    19  H    0.000000   0.000000   0.000116   0.004052   0.000115   0.000000
    20  H   -0.000007   0.000121  -0.002064  -0.001784   0.000357  -0.000024
    21  H   -0.000007  -0.000025   0.000352  -0.001802  -0.002080   0.000121
    22  C   -0.000002  -0.000033  -0.006202  -0.084878   0.004351  -0.000080
    23  H    0.000000   0.000000   0.000194   0.004109  -0.000072   0.000001
    24  H    0.000000  -0.000041  -0.000595  -0.002830   0.000061  -0.000006
    25  H   -0.000001   0.000043  -0.000658   0.000235  -0.000107   0.000001
    26  C   -0.000002  -0.000081   0.004310  -0.085940  -0.006267  -0.000009
    27  H    0.000000  -0.000005   0.000040  -0.002503  -0.000419  -0.000040
    28  H    0.000000   0.000001  -0.000072   0.004149   0.000186   0.000000
    29  H   -0.000001   0.000001  -0.000100  -0.000129  -0.000846   0.000053
    30  C    0.272281  -0.088073   0.004459  -0.000169   0.004476  -0.088092
    31  H   -0.046738   0.004325  -0.000101   0.000005  -0.000031  -0.001173
    32  H   -0.046743  -0.001172  -0.000031   0.000005  -0.000101   0.004328
    33  H   -0.049640  -0.001454  -0.000053   0.000005  -0.000053  -0.001456
              7          8          9         10         11         12
     1  C    0.003762  -0.051443  -0.045027   0.397838   0.000293   0.003779
     2  C   -0.041149   0.387122   0.395139  -0.046140  -0.001019  -0.000261
     3  C    0.395980  -0.047726  -0.043165  -0.000671  -0.043803   0.003527
     4  C   -0.044080  -0.001769   0.003963   0.000235   0.403516  -0.044164
     5  C    0.003521   0.000445  -0.000302  -0.000664  -0.043821   0.396120
     6  C   -0.000260  -0.000672   0.003799  -0.046128  -0.000990  -0.041225
     7  H    0.508839  -0.002281  -0.001785  -0.000037  -0.001949  -0.000051
     8  H   -0.002281   0.538926  -0.022841   0.003282   0.002336  -0.000018
     9  H   -0.001785  -0.022841   0.519666  -0.002220  -0.000024   0.000004
    10  H   -0.000037   0.003282  -0.002220   0.531632   0.000034  -0.000037
    11  H   -0.001949   0.002336  -0.000024   0.000034   0.521894  -0.001944
    12  H   -0.000051  -0.000018   0.000004  -0.000037  -0.001944   0.509330
    13  H   -0.000043   0.000035  -0.000016   0.002380   0.003032  -0.022753
    14  H   -0.000018   0.002413  -0.000051   0.003280   0.002315  -0.002300
    15  H    0.000004  -0.000050  -0.000055  -0.002229  -0.000024  -0.001773
    16  H   -0.022693   0.003298  -0.002140   0.002383   0.003028  -0.000044
    17  C   -0.003250  -0.000066  -0.000080  -0.000032  -0.045181  -0.003254
    18  C    0.000709  -0.000006   0.000005  -0.000009   0.003432   0.000700
    19  H   -0.000026   0.000000   0.000000   0.000000  -0.000033  -0.000027
    20  H    0.000076  -0.000004   0.000001  -0.000008  -0.000068  -0.000004
    21  H   -0.000005   0.000000   0.000000  -0.000008  -0.000068   0.000065
    22  C   -0.001428   0.000002   0.000001   0.000000  -0.002304  -0.000021
    23  H    0.000155   0.000000   0.000000   0.000000  -0.000050  -0.000001
    24  H    0.000431   0.000000   0.000001   0.000000   0.003015   0.000000
    25  H   -0.001179   0.000000   0.000000   0.000000   0.000076  -0.000001
    26  C   -0.000021   0.000000   0.000000   0.000000  -0.002231  -0.001711
    27  H    0.000000   0.000000   0.000000   0.000000   0.003025   0.000378
    28  H   -0.000001   0.000000   0.000000   0.000000  -0.000049   0.000154
    29  H   -0.000001   0.000000   0.000000   0.000000   0.000077  -0.001183
    30  C   -0.000066  -0.002008  -0.001860  -0.041564  -0.000037  -0.000067
    31  H    0.000001   0.000002  -0.000029  -0.001697   0.000001  -0.000001
    32  H   -0.000001   0.000022   0.002362  -0.001697   0.000001   0.000001
    33  H    0.000001   0.002953   0.000046   0.003278  -0.000003   0.000001
             13         14         15         16         17         18
     1  C   -0.001337  -0.051413  -0.045034  -0.001343  -0.000263   0.000018
     2  C    0.000390  -0.000667   0.003800  -0.046991   0.004651   0.000109
     3  C   -0.000221   0.000438  -0.000302   0.387005  -0.085675  -0.008158
     4  C   -0.050468  -0.001732   0.003946  -0.050374   0.248278  -0.090452
     5  C    0.387002  -0.047708  -0.043177  -0.000194  -0.085893  -0.008143
     6  C   -0.047004   0.387200   0.395162   0.000389   0.004626   0.000104
     7  H   -0.000043  -0.000018   0.000004  -0.022693  -0.003250   0.000709
     8  H    0.000035   0.002413  -0.000050   0.003298  -0.000066  -0.000006
     9  H   -0.000016  -0.000051  -0.000055  -0.002140  -0.000080   0.000005
    10  H    0.002380   0.003280  -0.002229   0.002383  -0.000032  -0.000009
    11  H    0.003032   0.002315  -0.000024   0.003028  -0.045181   0.003432
    12  H   -0.022753  -0.002300  -0.001773  -0.000044  -0.003254   0.000700
    13  H    0.532385   0.003298  -0.002158   0.001888  -0.002670  -0.003594
    14  H    0.003298   0.538790  -0.022839   0.000034  -0.000065  -0.000006
    15  H   -0.002158  -0.022839   0.519642  -0.000016  -0.000080   0.000005
    16  H    0.001888   0.000034  -0.000016   0.532201  -0.002662  -0.003570
    17  C   -0.002670  -0.000065  -0.000080  -0.002662   5.806065   0.264389
    18  C   -0.003594  -0.000006   0.000005  -0.003570   0.264389   5.407307
    19  H    0.000196   0.000000   0.000000   0.000195  -0.046082   0.383659
    20  H   -0.000073   0.000000   0.000000  -0.000222  -0.046688   0.381607
    21  H   -0.000198  -0.000004   0.000001  -0.000073  -0.046779   0.381459
    22  C   -0.000019   0.000000   0.000000   0.000051   0.267243  -0.084900
    23  H    0.000000   0.000000   0.000000  -0.000028  -0.047016   0.000560
    24  H    0.000001   0.000000   0.000000   0.000063  -0.049577   0.004052
    25  H    0.000003   0.000000   0.000000   0.000112  -0.046482  -0.003737
    26  C    0.000069   0.000002   0.000001  -0.000017   0.270857  -0.085435
    27  H    0.000055   0.000001   0.000001   0.000001  -0.049513   0.004067
    28  H   -0.000029   0.000000   0.000000   0.000000  -0.046956   0.000285
    29  H    0.000118   0.000000   0.000000   0.000002  -0.046327  -0.003338
    30  C   -0.000062  -0.002024  -0.001838  -0.000062   0.000003   0.000000
    31  H    0.000001   0.000022   0.002356   0.000001   0.000000   0.000000
    32  H    0.000001   0.000003  -0.000030   0.000001   0.000000   0.000000
    33  H    0.000001   0.002955   0.000046   0.000001   0.000000   0.000000
             19         20         21         22         23         24
     1  C    0.000000  -0.000007  -0.000007  -0.000002   0.000000   0.000000
     2  C    0.000000   0.000121  -0.000025  -0.000033   0.000000  -0.000041
     3  C    0.000116  -0.002064   0.000352  -0.006202   0.000194  -0.000595
     4  C    0.004052  -0.001784  -0.001802  -0.084878   0.004109  -0.002830
     5  C    0.000115   0.000357  -0.002080   0.004351  -0.000072   0.000061
     6  C    0.000000  -0.000024   0.000121  -0.000080   0.000001  -0.000006
     7  H   -0.000026   0.000076  -0.000005  -0.001428   0.000155   0.000431
     8  H    0.000000  -0.000004   0.000000   0.000002   0.000000   0.000000
     9  H    0.000000   0.000001   0.000000   0.000001   0.000000   0.000001
    10  H    0.000000  -0.000008  -0.000008   0.000000   0.000000   0.000000
    11  H   -0.000033  -0.000068  -0.000068  -0.002304  -0.000050   0.003015
    12  H   -0.000027  -0.000004   0.000065  -0.000021  -0.000001   0.000000
    13  H    0.000196  -0.000073  -0.000198  -0.000019   0.000000   0.000001
    14  H    0.000000   0.000000  -0.000004   0.000000   0.000000   0.000000
    15  H    0.000000   0.000000   0.000001   0.000000   0.000000   0.000000
    16  H    0.000195  -0.000222  -0.000073   0.000051  -0.000028   0.000063
    17  C   -0.046082  -0.046688  -0.046779   0.267243  -0.047016  -0.049577
    18  C    0.383659   0.381607   0.381459  -0.084900   0.000560   0.004052
    19  H    0.507539  -0.025136  -0.025146  -0.001355   0.001145  -0.000028
    20  H   -0.025136   0.512859  -0.025249  -0.000931   0.000005  -0.000055
    21  H   -0.025146  -0.025249   0.513085   0.003830  -0.000089  -0.000077
    22  C   -0.001355  -0.000931   0.003830   5.375780   0.383118   0.382521
    23  H    0.001145   0.000005  -0.000089   0.383118   0.511236  -0.024884
    24  H   -0.000028  -0.000055  -0.000077   0.382521  -0.024884   0.514292
    25  H    0.000031   0.001896   0.000073   0.384651  -0.025039  -0.025963
    26  C   -0.001348   0.003801  -0.000845  -0.084393  -0.004264   0.001142
    27  H   -0.000031  -0.000076  -0.000057   0.000868   0.000037   0.000765
    28  H    0.001294  -0.000085   0.000005  -0.003961   0.003023   0.000033
    29  H    0.000028   0.000052   0.001867   0.003811   0.000065  -0.000080
    30  C    0.000000   0.000000   0.000000   0.000000   0.000000   0.000000
    31  H    0.000000   0.000000   0.000000   0.000000   0.000000   0.000000
    32  H    0.000000   0.000000   0.000000   0.000000   0.000000   0.000000
    33  H    0.000000   0.000000   0.000000   0.000000   0.000000   0.000000
             25         26         27         28         29         30
     1  C   -0.000001  -0.000002   0.000000   0.000000  -0.000001   0.272281
     2  C    0.000043  -0.000081  -0.000005   0.000001   0.000001  -0.088073
     3  C   -0.000658   0.004310   0.000040  -0.000072  -0.000100   0.004459
     4  C    0.000235  -0.085940  -0.002503   0.004149  -0.000129  -0.000169
     5  C   -0.000107  -0.006267  -0.000419   0.000186  -0.000846   0.004476
     6  C    0.000001  -0.000009  -0.000040   0.000000   0.000053  -0.088092
     7  H   -0.001179  -0.000021   0.000000  -0.000001  -0.000001  -0.000066
     8  H    0.000000   0.000000   0.000000   0.000000   0.000000  -0.002008
     9  H    0.000000   0.000000   0.000000   0.000000   0.000000  -0.001860
    10  H    0.000000   0.000000   0.000000   0.000000   0.000000  -0.041564
    11  H    0.000076  -0.002231   0.003025  -0.000049   0.000077  -0.000037
    12  H   -0.000001  -0.001711   0.000378   0.000154  -0.001183  -0.000067
    13  H    0.000003   0.000069   0.000055  -0.000029   0.000118  -0.000062
    14  H    0.000000   0.000002   0.000001   0.000000   0.000000  -0.002024
    15  H    0.000000   0.000001   0.000001   0.000000   0.000000  -0.001838
    16  H    0.000112  -0.000017   0.000001   0.000000   0.000002  -0.000062
    17  C   -0.046482   0.270857  -0.049513  -0.046956  -0.046327   0.000003
    18  C   -0.003737  -0.085435   0.004067   0.000285  -0.003338   0.000000
    19  H    0.000031  -0.001348  -0.000031   0.001294   0.000028   0.000000
    20  H    0.001896   0.003801  -0.000076  -0.000085   0.000052   0.000000
    21  H    0.000073  -0.000845  -0.000057   0.000005   0.001867   0.000000
    22  C    0.384651  -0.084393   0.000868  -0.003961   0.003811   0.000000
    23  H   -0.025039  -0.004264   0.000037   0.003023   0.000065   0.000000
    24  H   -0.025963   0.001142   0.000765   0.000033  -0.000080   0.000000
    25  H    0.511615   0.003781  -0.000073   0.000047  -0.000077   0.000000
    26  C    0.003781   5.372821   0.382389   0.382771   0.384318   0.000000
    27  H   -0.000073   0.382389   0.514565  -0.024870  -0.025930   0.000000
    28  H    0.000047   0.382771  -0.024870   0.511961  -0.025063   0.000000
    29  H   -0.000077   0.384318  -0.025930  -0.025063   0.511973   0.000000
    30  C    0.000000   0.000000   0.000000   0.000000   0.000000   5.351904
    31  H    0.000000   0.000000   0.000000   0.000000   0.000000   0.382437
    32  H    0.000000   0.000000   0.000000   0.000000   0.000000   0.382417
    33  H    0.000000   0.000000   0.000000   0.000000   0.000000   0.377889
             31         32         33
     1  C   -0.046738  -0.046743  -0.049640
     2  C    0.004325  -0.001172  -0.001454
     3  C   -0.000101  -0.000031  -0.000053
     4  C    0.000005   0.000005   0.000005
     5  C   -0.000031  -0.000101  -0.000053
     6  C   -0.001173   0.004328  -0.001456
     7  H    0.000001  -0.000001   0.000001
     8  H    0.000002   0.000022   0.002953
     9  H   -0.000029   0.002362   0.000046
    10  H   -0.001697  -0.001697   0.003278
    11  H    0.000001   0.000001  -0.000003
    12  H   -0.000001   0.000001   0.000001
    13  H    0.000001   0.000001   0.000001
    14  H    0.000022   0.000003   0.002955
    15  H    0.002356  -0.000030   0.000046
    16  H    0.000001   0.000001   0.000001
    17  C    0.000000   0.000000   0.000000
    18  C    0.000000   0.000000   0.000000
    19  H    0.000000   0.000000   0.000000
    20  H    0.000000   0.000000   0.000000
    21  H    0.000000   0.000000   0.000000
    22  C    0.000000   0.000000   0.000000
    23  H    0.000000   0.000000   0.000000
    24  H    0.000000   0.000000   0.000000
    25  H    0.000000   0.000000   0.000000
    26  C    0.000000   0.000000   0.000000
    27  H    0.000000   0.000000   0.000000
    28  H    0.000000   0.000000   0.000000
    29  H    0.000000   0.000000   0.000000
    30  C    0.382437   0.382417   0.377889
    31  H    0.513088  -0.024970  -0.025578
    32  H   -0.024970   0.513103  -0.025574
    33  H   -0.025578  -0.025574   0.519498
 Mulliken atomic charges:
              1
     1  C   -0.292601
     2  C   -0.356625
     3  C   -0.382888
     4  C   -0.220023
     5  C   -0.383129
     6  C   -0.356609
     7  H    0.206846
     8  H    0.188049
     9  H    0.194605
    10  H    0.198796
    11  H    0.197523
    12  H    0.206782
    13  H    0.199790
    14  H    0.188076
    15  H    0.194641
    16  H    0.199775
    17  C   -0.211522
    18  C   -0.541120
    19  H    0.200840
    20  H    0.201702
    21  H    0.201652
    22  C   -0.535723
    23  H    0.197795
    24  H    0.197758
    25  H    0.200753
    26  C   -0.533700
    27  H    0.197325
    28  H    0.197176
    29  H    0.200708
    30  C   -0.549946
    31  H    0.198080
    32  H    0.198076
    33  H    0.197138
 Sum of Mulliken atomic charges =   0.00000
 Mulliken charges with hydrogens summed into heavy atoms:
              1
     1  C   -0.093805
     2  C    0.026030
     3  C    0.023733
     4  C   -0.022500
     5  C    0.023443
     6  C    0.026109
    17  C   -0.211522
    18  C    0.063074
    22  C    0.060582
    26  C    0.061509
    30  C    0.043347
 Sum of Mulliken charges with hydrogens summed into heavy atoms =   0.00000
 Electronic spatial extent (au):  <R**2>=           2234.4040
 Charge=              0.0000 electrons
 Dipole moment (field-independent basis, Debye):
    X=             -0.0538    Y=              0.0004    Z=              0.0605  Tot=              0.0809
 Quadrupole moment (field-independent basis, Debye-Ang):
   XX=            -76.5616   YY=            -75.2215   ZZ=            -74.4634
   XY=              0.0022   XZ=              0.3035   YZ=             -0.0037
 Traceless Quadrupole moment (field-independent basis, Debye-Ang):
   XX=             -1.1461   YY=              0.1940   ZZ=              0.9521
   XY=              0.0022   XZ=              0.3035   YZ=             -0.0037
 Octapole moment (field-independent basis, Debye-Ang**2):
  XXX=             -8.4152  YYY=              0.0178  ZZZ=             -2.6691  XYY=              1.7450
  XXY=              0.0252  XXZ=              2.0770  XZZ=              2.0777  YZZ=             -0.0392
  YYZ=              2.3227  XYZ=              0.0362
 Hexadecapole moment (field-independent basis, Debye-Ang**3):
 XXXX=          -2264.0514 YYYY=           -575.2375 ZZZZ=           -311.8638 XXXY=             -0.1740
 XXXZ=              2.9174 YYYX=              0.0858 YYYZ=             -0.0247 ZZZX=              1.5217
 ZZZY=             -0.0305 XXYY=           -475.9122 XXZZ=           -431.5233 YYZZ=           -148.0797
 XXYZ=             -0.0930 YYXZ=              2.1966 ZZXY=              0.0562
 N-N= 6.967209298059D+02 E-N=-2.385628934582D+03  KE= 4.267365684816D+02
 1\1\GINC-NODE02\SP\RHF\3-21G\C11H22\SC4102.09\29-Jun-2022\0\\# hf/3-21
 g geom=connectivity\\f\\0,1\C,0,-2.84175666,-0.90649085,0.\C,0,-1.3266
 5066,-0.90649085,0.\C,0,-0.77471966,0.50458715,0.\C,0,-1.32438266,1.30
 912415,1.160661\C,0,-2.83950766,1.30978515,1.160172\C,0,-3.39230766,-0
 .10083585,1.158876\H,0,0.34387934,0.47059615,0.062714\H,0,-0.95410166,
 -1.45212485,0.906562\H,0,-0.95135666,-1.45634985,-0.90191\H,0,-3.21444
 466,-0.47346185,-0.965385\H,0,-0.95184766,0.87427915,2.125272\H,0,-3.2
 1482766,1.85921315,2.062286\H,0,-3.21136266,1.85638615,0.253849\H,0,-3
 .12630366,-0.60655785,2.124191\H,0,-4.51085566,-0.06577485,1.093938\H,
 0,-1.04333766,1.01022015,-0.964546\C,0,-0.80777125,2.75738451,1.075487
 16\C,0,-1.2943589,3.39962357,-0.23690053\H,0,-0.9351194,4.40576731,-0.
 29624494\H,0,-0.92189278,2.83829986,-1.06821556\H,0,-2.36414805,3.4010
 3439,-0.25809449\C,0,0.73192131,2.75581524,1.10621741\H,0,1.08415937,3
 .72800634,1.38130434\H,0,1.07365153,2.03707676,1.82143448\H,0,1.107738
 98,2.50127227,0.13726491\C,0,-1.344265,3.56497447,2.27197072\H,0,-1.24
 842541,2.984581,3.16575939\H,0,-0.78213229,4.46987094,2.37231606\H,0,-
 2.37499583,3.80158893,2.10915932\C,0,-3.35777378,-2.35483992,0.0872427
 6\H,0,-4.42756853,-2.35419176,0.06629588\H,0,-2.9851126,-2.91688786,-0
 .74349532\H,0,-3.01917142,-2.79976019,0.99954446\\Version=EM64L-G09Rev
 C.01\State=1-A\HF=-426.9889087\RMSD=9.296e-09\Dipole=0.0008879,0.02700
 66,-0.016857\Quadrupole=0.0881093,-0.6972841,0.6091748,-0.4203868,0.19
 26847,-0.1688658\PG=C01 [X(C11H22)]\\@


 There ain't no surer way to find out whether you
 like people or hate them than to travel with them.
                                     -- Mark Twain
 Job cpu time:  0 days  0 hours  0 minutes 14.2 seconds.
 File lengths (MBytes):  RWF=     15 Int=      0 D2E=      0 Chk=      3 Scr=      1
 Normal termination of Gaussian 09 at Wed Jun 29 17:23:08 2022.
