 Entering Gaussian System, Link 0=g09
 Input=/home/iiit/sc4102.09/Problem1/g.com
 Output=/home/iiit/sc4102.09/Problem1/g.log
 Initial command:
 /global/g09-revC/l1.exe /scratch/Gau-3963.inp -scrdir=/scratch/
 Entering Link 1 = /global/g09-revC/l1.exe PID=      3965.
  
 Copyright (c) 1988,1990,1992,1993,1995,1998,2003,2009,2011,
            Gaussian, Inc.  All Rights Reserved.
  
 This is part of the Gaussian(R) 09 program.  It is based on
 the Gaussian(R) 03 system (copyright 2003, Gaussian, Inc.),
 the Gaussian(R) 98 system (copyright 1998, Gaussian, Inc.),
 the Gaussian(R) 94 system (copyright 1995, Gaussian, Inc.),
 the Gaussian 92(TM) system (copyright 1992, Gaussian, Inc.),
 the Gaussian 90(TM) system (copyright 1990, Gaussian, Inc.),
 the Gaussian 88(TM) system (copyright 1988, Gaussian, Inc.),
 the Gaussian 86(TM) system (copyright 1986, Carnegie Mellon
 University), and the Gaussian 82(TM) system (copyright 1983,
 Carnegie Mellon University). Gaussian is a federally registered
 trademark of Gaussian, Inc.
  
 This software contains proprietary and confidential information,
 including trade secrets, belonging to Gaussian, Inc.
  
 This software is provided under written license and may be
 used, copied, transmitted, or stored only in accord with that
 written license.
  
 The following legend is applicable only to US Government
 contracts under FAR:
  
                    RESTRICTED RIGHTS LEGEND
  
 Use, reproduction and disclosure by the US Government is
 subject to restrictions as set forth in subparagraphs (a)
 and (c) of the Commercial Computer Software - Restricted
 Rights clause in FAR 52.227-19.
  
 Gaussian, Inc.
 340 Quinnipiac St., Bldg. 40, Wallingford CT 06492
  
  
 ---------------------------------------------------------------
 Warning -- This program may not be used in any manner that
 competes with the business of Gaussian, Inc. or will provide
 assistance to any competitor of Gaussian, Inc.  The licensee
 of this program is prohibited from giving any competitor of
 Gaussian, Inc. access to this program.  By using this program,
 the user acknowledges that Gaussian, Inc. is engaged in the
 business of creating and licensing software in the field of
 computational chemistry and represents and warrants to the
 licensee that it is not a competitor of Gaussian, Inc. and that
 it will not use this program in any manner prohibited above.
 ---------------------------------------------------------------
  

 Cite this work as:
 Gaussian 09, Revision C.01,
 M. J. Frisch, G. W. Trucks, H. B. Schlegel, G. E. Scuseria, 
 M. A. Robb, J. R. Cheeseman, G. Scalmani, V. Barone, B. Mennucci, 
 G. A. Petersson, H. Nakatsuji, M. Caricato, X. Li, H. P. Hratchian, 
 A. F. Izmaylov, J. Bloino, G. Zheng, J. L. Sonnenberg, M. Hada, 
 M. Ehara, K. Toyota, R. Fukuda, J. Hasegawa, M. Ishida, T. Nakajima, 
 Y. Honda, O. Kitao, H. Nakai, T. Vreven, J. A. Montgomery, Jr., 
 J. E. Peralta, F. Ogliaro, M. Bearpark, J. J. Heyd, E. Brothers, 
 K. N. Kudin, V. N. Staroverov, T. Keith, R. Kobayashi, J. Normand, 
 K. Raghavachari, A. Rendell, J. C. Burant, S. S. Iyengar, J. Tomasi, 
 M. Cossi, N. Rega, J. M. Millam, M. Klene, J. E. Knox, J. B. Cross, 
 V. Bakken, C. Adamo, J. Jaramillo, R. Gomperts, R. E. Stratmann, 
 O. Yazyev, A. J. Austin, R. Cammi, C. Pomelli, J. W. Ochterski, 
 R. L. Martin, K. Morokuma, V. G. Zakrzewski, G. A. Voth, 
 P. Salvador, J. J. Dannenberg, S. Dapprich, A. D. Daniels, 
 O. Farkas, J. B. Foresman, J. V. Ortiz, J. Cioslowski, 
 and D. J. Fox, Gaussian, Inc., Wallingford CT, 2010.
 
 ******************************************
 Gaussian 09:  EM64L-G09RevC.01 23-Sep-2011
                29-Jun-2022 
 ******************************************
 %chk=g.chk
 ----------------------------
 # hf/3-21g geom=connectivity
 ----------------------------
 1/38=1,57=2/1;
 2/12=2,17=6,18=5,40=1/2;
 3/5=5,11=9,16=1,25=1,30=1/1,2,3;
 4//1;
 5/5=2,38=5/2;
 6/7=2,8=2,9=2,10=2,28=1/1;
 99/5=1,9=1/99;
 -
 g
 -
 Charge =  0 Multiplicity = 1
 Symbolic Z-Matrix:
 C                    -2.49517  -2.81271   0. 
 C                    -0.98007  -2.81271   0. 
 C                    -0.42813  -1.40163   0. 
 C                    -0.9778   -0.59709   1.16066 
 C                    -2.49292  -0.59643   1.16017 
 C                    -3.04572  -2.00705   1.15888 
 H                    -0.60752  -3.35834   0.90656 
 H                    -0.60477  -3.36257  -0.90191 
 H                    -2.86786  -2.37968  -0.96539 
 H                    -2.87077  -3.86693   0.0635 
 H                    -0.60526  -1.03194   2.12527 
 H                    -2.86824  -0.047     2.06229 
 H                    -2.86478  -0.04983   0.25385 
 H                    -2.77972  -2.51278   2.12419 
 H                    -4.16427  -1.97199   1.09394 
 C                     1.10874  -1.44833   0.08616 
 H                     1.496    -1.99948  -0.7452 
 H                     1.49757  -0.45169   0.06561 
 H                     1.40049  -1.92627   0.99795 
 C                    -0.79693  -0.70743  -1.32426 
 H                    -0.39267   0.28323  -1.33229 
 H                    -1.8618   -0.65887  -1.41702 
 C                    -0.21495  -1.50892  -2.50346 
 H                    -1.0071   -1.80486  -3.15907 
 H                     0.48256  -0.89954  -3.03921 
 H                     0.28405  -2.37926  -2.13142 
 C                    -0.46119   0.85117   1.07549 
 H                     0.60233   0.84415   0.95806 
 H                    -0.90944   1.34098   0.23641 
 C                    -0.83008   1.60456   2.36696 
 H                    -0.15767   2.42526   2.50558 
 H                    -1.83177   1.97305   2.29118 
 H                    -0.75713   0.93883   3.20146 
 
                          Input orientation:                          
 ---------------------------------------------------------------------
 Center     Atomic      Atomic             Coordinates (Angstroms)
 Number     Number       Type             X           Y           Z
 ---------------------------------------------------------------------
      1          6           0       -2.495172   -2.812709    0.000000
      2          6           0       -0.980066   -2.812709    0.000000
      3          6           0       -0.428135   -1.401631    0.000000
      4          6           0       -0.977798   -0.597094    1.160661
      5          6           0       -2.492923   -0.596433    1.160172
      6          6           0       -3.045723   -2.007054    1.158876
      7          1           0       -0.607517   -3.358343    0.906562
      8          1           0       -0.604772   -3.362568   -0.901910
      9          1           0       -2.867860   -2.379680   -0.965385
     10          1           0       -2.870769   -3.866929    0.063502
     11          1           0       -0.605263   -1.031939    2.125272
     12          1           0       -2.868243   -0.047005    2.062286
     13          1           0       -2.864778   -0.049832    0.253849
     14          1           0       -2.779719   -2.512776    2.124191
     15          1           0       -4.164271   -1.971993    1.093938
     16          6           0        1.108744   -1.448332    0.086165
     17          1           0        1.495997   -1.999483   -0.745200
     18          1           0        1.497572   -0.451693    0.065608
     19          1           0        1.400493   -1.926269    0.997954
     20          6           0       -0.796931   -0.707428   -1.324263
     21          1           0       -0.392669    0.283233   -1.332295
     22          1           0       -1.861796   -0.658869   -1.417023
     23          6           0       -0.214952   -1.508924   -2.503459
     24          1           0       -1.007101   -1.804860   -3.159066
     25          1           0        0.482560   -0.899537   -3.039206
     26          1           0        0.284048   -2.379260   -2.131416
     27          6           0       -0.461186    0.851166    1.075487
     28          1           0        0.602328    0.844152    0.958060
     29          1           0       -0.909443    1.340978    0.236410
     30          6           0       -0.830084    1.604560    2.366964
     31          1           0       -0.157667    2.425255    2.505575
     32          1           0       -1.831768    1.973052    2.291180
     33          1           0       -0.757131    0.938833    3.201461
 ---------------------------------------------------------------------
                    Distance matrix (angstroms):
                    1          2          3          4          5
     1  C    0.000000
     2  C    1.515106   0.000000
     3  C    2.502755   1.515180   0.000000
     4  C    2.925493   2.501217   1.515435   0.000000
     5  C    2.501576   2.923459   2.501538   1.515125   0.000000
     6  C    1.514985   2.501802   2.925970   2.502859   1.515071
     7  H    2.163981   1.121768   2.163967   2.797529   3.353688
     8  H    2.165502   1.120996   2.165621   3.470042   3.933039
     9  H    1.121775   2.164081   2.800144   3.357085   2.799739
    10  H    1.120931   2.165680   3.471050   3.934326   3.470100
    11  H    3.355545   2.797928   2.164446   1.121761   2.164334
    12  H    3.470061   3.932856   3.470182   2.165481   1.120958
    13  H    2.799024   3.354112   2.798040   2.163908   1.121816
    14  H    2.164050   2.800160   3.358091   2.800919   2.164245
    15  H    2.165501   3.470254   3.934555   3.471082   2.165631
    16  C    3.854498   2.496412   1.540000   2.496558   3.853729
    17  H    4.140783   2.710635   2.148263   3.423253   4.637938
    18  H    4.639041   3.423067   2.148263   2.710671   4.140419
    19  H    4.117996   2.729239   2.148263   2.729367   4.117458
    20  C    3.011628   2.493876   1.540000   2.493939   3.010170
    21  H    3.972453   3.421242   2.148263   2.707800   3.375984
    22  H    2.654835   2.724781   2.148263   2.725752   2.654082
    23  C    3.628576   2.924476   2.514809   3.852161   4.409533
    24  H    3.634530   3.316050   3.236896   4.485488   4.724804
    25  H    4.665178   3.877663   3.212201   4.456792   5.155593
    26  H    3.529147   2.515710   2.450693   3.950461   4.660965
    27  C    4.326402   3.853556   2.496570   1.540000   2.496131
    28  H    4.887229   4.098107   2.650146   2.148263   3.420045
    29  H    4.452363   4.161008   2.794539   2.148263   2.667265
    30  C    5.280842   5.013709   3.847241   2.514809   3.010938
    31  H    6.259242   5.864343   4.582152   3.408226   4.048967
    32  H    5.347254   5.373864   4.313720   2.934790   2.884191
    33  H    5.229169   4.936914   3.979367   2.563714   3.088183
                    6          7          8          9         10
     6  C    0.000000
     7  H    2.799016   0.000000
     8  H    3.470230   1.808479   0.000000
     9  H    2.164017   3.093722   2.468130   0.000000
    10  H    2.165546   2.468141   2.514188   1.808460   0.000000
    11  H    2.800110   2.626293   3.820427   4.060531   4.173797
    12  H    2.165512   4.172714   4.990262   3.822063   4.311260
    13  H    2.163916   4.058018   4.173443   2.629588   3.821845
    14  H    1.121760   2.629841   3.822280   3.093697   2.467480
    15  H    1.120980   3.821986   4.311281   2.467327   2.515100
    16  C    4.326947   2.695689   2.752585   4.217409   4.656892
    17  H    4.924711   2.999931   2.509140   4.385918   4.817675
    18  H    4.925029   3.686084   3.718754   4.882323   5.544929
    19  H    4.449860   2.468054   3.113442   4.720075   4.783621
    20  C    3.593337   3.469843   2.695381   2.685883   4.026058
    21  H    4.300004   4.280153   3.677238   3.654079   5.031209
    22  H    3.139194   3.776165   3.025796   2.043853   3.674457
    23  C    4.655544   3.899064   2.480507   3.187759   4.382104
    24  H    4.779276   4.370619   2.771837   2.933441   4.255623
    25  H    5.594574   4.775257   3.437564   4.209141   5.447662
    26  H    4.695949   3.314031   1.807922   3.360677   4.121128
    27  C    3.854375   4.215438   4.656852   4.516149   5.393573
    28  H    4.634433   4.373481   4.755320   5.112234   5.920888
    29  H    4.077248   4.756456   4.848911   4.372985   5.567673
    30  C    4.405937   5.178099   5.950518   5.579538   6.277541
    31  H    5.458922   6.017410   6.731252   6.517677   7.274354
    32  H    4.312429   5.642671   6.337996   5.533984   6.336202
    33  H    4.253005   4.873876   5.946673   5.729774   6.116339
                   11         12         13         14         15
    11  H    0.000000
    12  H    2.468834   0.000000
    13  H    3.093892   1.808443   0.000000
    14  H    2.630806   2.468136   3.093785   0.000000
    15  H    3.822812   2.514551   2.467617   1.808550   0.000000
    16  C    2.696138   4.656736   4.215779   4.517381   5.393932
    17  H    3.686603   5.544433   4.880122   5.174806   5.951623
    18  H    3.000136   4.817762   4.384863   5.175040   5.951910
    19  H    2.468547   4.783987   4.718817   4.368818   5.565779
    20  C    3.470062   4.024326   2.683069   4.368359   4.334259
    21  H    3.705353   4.214345   2.956029   5.046084   5.019724
    22  H    3.777024   3.673269   2.041742   4.101189   3.651111
    23  C    4.669583   5.479342   4.093076   5.385248   5.362165
    24  H    5.355662   5.815188   4.263692   5.617484   5.299405
    25  H    5.279462   6.162784   4.771884   6.317093   6.310790
    26  H    4.552531   5.741384   4.585938   5.245444   5.509657
    27  C    2.160762   2.752164   2.695207   4.217995   4.656544
    28  H    2.518010   3.749444   3.649101   4.905819   5.538013
    29  H    3.048124   3.016159   2.399581   4.681139   4.722820
    30  C    2.657082   2.640944   3.367825   4.562068   5.052635
    31  H    3.506731   3.695375   4.304042   5.603995   6.114032
    32  H    3.249895   2.281952   3.051211   4.587936   4.736807
    33  H    2.250597   2.593528   3.756068   4.143063   4.952086
                   16         17         18         19         20
    16  C    0.000000
    17  H    1.070000   0.000000
    18  H    1.070000   1.747303   0.000000
    19  H    1.070000   1.747303   1.747303   0.000000
    20  C    2.483916   2.694854   2.694788   3.421539   0.000000
    21  H    2.695289   3.020353   2.463181   3.677959   1.070000
    22  H    3.421539   3.677413   3.677835   4.252169   1.070000
    23  C    2.908950   2.501893   3.263523   3.878624   1.540000
    24  H    3.890429   3.482834   4.301508   4.805420   2.148263
    25  H    3.234381   2.738503   3.297072   4.265610   2.148263
    26  H    2.542521   1.880065   3.164660   3.353298   2.148263
    27  C    2.954849   3.907899   2.560084   3.344549   2.881100
    28  H    2.504424   3.433075   1.810289   2.883381   3.094240
    29  H    3.446143   4.231830   3.006088   4.073162   2.577659
    30  C    4.275658   5.299561   3.865540   4.395044   4.355633
    31  H    4.739412   5.734148   4.119477   4.861743   4.988990
    32  H    5.021412   6.006219   4.681567   5.227298   4.618148
    33  H    4.345701   5.411693   4.104975   4.209464   4.816008
                   21         22         23         24         25
    21  H    0.000000
    22  H    1.747303   0.000000
    23  C    2.148263   2.148263   0.000000
    24  H    2.841610   2.253555   1.070000   0.000000
    25  H    2.253556   2.861014   1.070000   1.747303   0.000000
    26  H    2.861015   2.841610   1.070000   1.747303   1.747303
    27  C    2.474804   3.233345   4.294126   5.028314   4.570155
    28  H    2.559370   3.737913   4.264625   5.153470   4.362674
    29  H    1.961305   2.764091   4.013869   4.629804   4.205620
    30  C    3.952436   4.528365   5.813191   6.495574   6.100837
    31  H    4.401447   5.272822   6.369574   7.120644   6.496825
    32  H    4.249243   4.547382   6.142216   6.682655   6.482353
    33  H    4.595388   5.010322   6.231499   6.931568   6.622866
                   26         27         28         29         30
    26  H    0.000000
    27  C    4.612511   0.000000
    28  H    4.476220   1.070000   0.000000
    29  H    4.568500   1.070000   1.747303   0.000000
    30  C    6.111263   1.540000   2.148263   2.148263   0.000000
    31  H    6.691799   2.148263   2.339291   2.624869   1.070000
    32  H    6.555811   2.148263   2.996072   2.339291   1.070000
    33  H    6.366583   2.148263   2.624870   2.996072   1.070000
                   31         32         33
    31  H    0.000000
    32  H    1.747303   0.000000
    33  H    1.747303   1.747303   0.000000
 Stoichiometry    C11H22
 Framework group  C1[X(C11H22)]
 Deg. of freedom    93
 Full point group                 C1      NOp   1
 Largest Abelian subgroup         C1      NOp   1
 Largest concise Abelian subgroup C1      NOp   1
                         Standard orientation:                         
 ---------------------------------------------------------------------
 Center     Atomic      Atomic             Coordinates (Angstroms)
 Number     Number       Type             X           Y           Z
 ---------------------------------------------------------------------
      1          6           0       -1.347772    1.901283    0.029508
      2          6           0       -1.452661    0.650115    0.877520
      3          6           0       -0.506887   -0.428340    0.389446
      4          6           0        0.920208    0.078167    0.331209
      5          6           0        1.025211    1.328887   -0.517483
      6          6           0        0.078892    2.407403   -0.030940
      7          1           0       -1.212195    0.901622    1.943955
      8          1           0       -2.505498    0.266091    0.851223
      9          1           0       -1.708715    1.678923   -1.009075
     10          1           0       -2.011603    2.698951    0.453227
     11          1           0        1.279344    0.301183    1.370263
     12          1           0        2.077895    1.713195   -0.490834
     13          1           0        0.785542    1.076465   -1.583932
     14          1           0        0.396480    2.749915    0.988947
     15          1           0        0.134450    3.292817   -0.716178
     16          6           0       -0.584380   -1.646618    1.328272
     17          1           0       -1.588619   -2.015173    1.352177
     18          1           0        0.069020   -2.414722    0.970523
     19          1           0       -0.287384   -1.356425    2.314416
     20          6           0       -0.942000   -0.895200   -1.012095
     21          1           0       -0.284903   -1.669011   -1.350235
     22          1           0       -0.900595   -0.069844   -1.691782
     23          6           0       -2.382436   -1.436244   -0.948728
     24          1           0       -3.001672   -0.881748   -1.622510
     25          1           0       -2.387985   -2.469306   -1.227392
     26          1           0       -2.758474   -1.333599    0.047745
     27          6           0        1.833592   -1.017441   -0.249283
     28          1           0        1.671302   -1.933831    0.278725
     29          1           0        1.607584   -1.158095   -1.285641
     30          6           0        3.305834   -0.591699   -0.098133
     31          1           0        3.930462   -1.460451   -0.101261
     32          1           0        3.578075    0.046265   -0.912864
     33          1           0        3.431886   -0.065103    0.824748
 ---------------------------------------------------------------------
 Rotational constants (GHZ):      1.3213940      0.9834761      0.7115456
 Standard basis: 3-21G (6D, 7F)
 There are   143 symmetry adapted basis functions of A   symmetry.
 Integral buffers will be    131072 words long.
 Raffenetti 1 integral format.
 Two-electron integral symmetry is turned on.
   143 basis functions,   231 primitive gaussians,   143 cartesian basis functions
    44 alpha electrons       44 beta electrons
       nuclear repulsion energy       713.4002578979 Hartrees.
 NAtoms=   33 NActive=   33 NUniq=   33 SFac= 1.00D+00 NAtFMM=   60 NAOKFM=F Big=F
 One-electron integrals computed using PRISM.
 NBasis=   143 RedAO= T  NBF=   143
 NBsUse=   143 1.00D-06 NBFU=   143
 Harris functional with IExCor=  205 diagonalized for initial guess.
 ExpMin= 1.83D-01 ExpMax= 1.72D+02 ExpMxC= 1.72D+02 IAcc=1 IRadAn=         1 AccDes= 0.00D+00
 HarFok:  IExCor=  205 AccDes= 0.00D+00 IRadAn=         1 IDoV= 1
 ScaDFX=  1.000000  1.000000  1.000000  1.000000
 FoFCou: FMM=F IPFlag=           0 FMFlag=      100000 FMFlg1=           0
         NFxFlg=           0 DoJE=T BraDBF=F KetDBF=T FulRan=T
         Omega=  0.000000  0.000000  1.000000  0.000000  0.000000 ICntrl=     500 IOpCl=  0
         NMat0=    1 NMatS0=    1 NMatT0=    0 NMatD0=    1 NMtDS0=    0 NMtDT0=    0
         I1Cent=           4 NGrid=           0.
 Petite list used in FoFCou.
 Initial guess orbital symmetries:
       Occupied  (A) (A) (A) (A) (A) (A) (A) (A) (A) (A) (A) (A)
                 (A) (A) (A) (A) (A) (A) (A) (A) (A) (A) (A) (A)
                 (A) (A) (A) (A) (A) (A) (A) (A) (A) (A) (A) (A)
                 (A) (A) (A) (A) (A) (A) (A) (A)
       Virtual   (A) (A) (A) (A) (A) (A) (A) (A) (A) (A) (A) (A)
                 (A) (A) (A) (A) (A) (A) (A) (A) (A) (A) (A) (A)
                 (A) (A) (A) (A) (A) (A) (A) (A) (A) (A) (A) (A)
                 (A) (A) (A) (A) (A) (A) (A) (A) (A) (A) (A) (A)
                 (A) (A) (A) (A) (A) (A) (A) (A) (A) (A) (A) (A)
                 (A) (A) (A) (A) (A) (A) (A) (A) (A) (A) (A) (A)
                 (A) (A) (A) (A) (A) (A) (A) (A) (A) (A) (A) (A)
                 (A) (A) (A) (A) (A) (A) (A) (A) (A) (A) (A) (A)
                 (A) (A) (A)
 The electronic state of the initial guess is 1-A.
 Requested convergence on RMS density matrix=1.00D-08 within 128 cycles.
 Requested convergence on MAX density matrix=1.00D-06.
 Requested convergence on             energy=1.00D-06.
 No special actions if energy rises.
 Integral accuracy reduced to 1.0D-05 until final iterations.
 Initial convergence to 1.0D-05 achieved.  Increase integral accuracy.
 SCF Done:  E(RHF) =  -426.973201868     A.U. after   11 cycles
             Convg  =    0.8623D-08             -V/T =  2.0002

 **********************************************************************

            Population analysis using the SCF density.

 **********************************************************************

 Orbital symmetries:
       Occupied  (A) (A) (A) (A) (A) (A) (A) (A) (A) (A) (A) (A)
                 (A) (A) (A) (A) (A) (A) (A) (A) (A) (A) (A) (A)
                 (A) (A) (A) (A) (A) (A) (A) (A) (A) (A) (A) (A)
                 (A) (A) (A) (A) (A) (A) (A) (A)
       Virtual   (A) (A) (A) (A) (A) (A) (A) (A) (A) (A) (A) (A)
                 (A) (A) (A) (A) (A) (A) (A) (A) (A) (A) (A) (A)
                 (A) (A) (A) (A) (A) (A) (A) (A) (A) (A) (A) (A)
                 (A) (A) (A) (A) (A) (A) (A) (A) (A) (A) (A) (A)
                 (A) (A) (A) (A) (A) (A) (A) (A) (A) (A) (A) (A)
                 (A) (A) (A) (A) (A) (A) (A) (A) (A) (A) (A) (A)
                 (A) (A) (A) (A) (A) (A) (A) (A) (A) (A) (A) (A)
                 (A) (A) (A) (A) (A) (A) (A) (A) (A) (A) (A) (A)
                 (A) (A) (A)
 The electronic state is 1-A.
 Alpha  occ. eigenvalues --  -11.16147 -11.15869 -11.15807 -11.15735 -11.15609
 Alpha  occ. eigenvalues --  -11.15446 -11.14578 -11.14384 -11.13972 -11.13743
 Alpha  occ. eigenvalues --  -11.13596  -1.15508  -1.06184  -1.05687  -0.98934
 Alpha  occ. eigenvalues --   -0.97708  -0.92156  -0.86583  -0.85658  -0.79180
 Alpha  occ. eigenvalues --   -0.78080  -0.70574  -0.65506  -0.64094  -0.62767
 Alpha  occ. eigenvalues --   -0.61579  -0.58972  -0.58643  -0.56783  -0.56670
 Alpha  occ. eigenvalues --   -0.53348  -0.52555  -0.51591  -0.51071  -0.49009
 Alpha  occ. eigenvalues --   -0.48559  -0.48053  -0.47626  -0.46605  -0.46447
 Alpha  occ. eigenvalues --   -0.44200  -0.41388  -0.39982  -0.39682
 Alpha virt. eigenvalues --    0.24981   0.25680   0.27593   0.28189   0.29228
 Alpha virt. eigenvalues --    0.30164   0.31455   0.31778   0.33213   0.33691
 Alpha virt. eigenvalues --    0.35008   0.35360   0.36117   0.36477   0.37084
 Alpha virt. eigenvalues --    0.37828   0.39011   0.39649   0.41184   0.42098
 Alpha virt. eigenvalues --    0.43065   0.43410   0.45618   0.45812   0.46607
 Alpha virt. eigenvalues --    0.48035   0.49505   0.49857   0.51692   0.52398
 Alpha virt. eigenvalues --    0.53919   0.55780   0.56773   0.87009   0.90528
 Alpha virt. eigenvalues --    0.92118   0.93297   0.94027   0.94615   0.97243
 Alpha virt. eigenvalues --    0.98460   1.01498   1.02721   1.03869   1.06338
 Alpha virt. eigenvalues --    1.06762   1.07122   1.07667   1.09755   1.10844
 Alpha virt. eigenvalues --    1.14014   1.14365   1.16426   1.17621   1.21602
 Alpha virt. eigenvalues --    1.24046   1.25221   1.26752   1.27552   1.29301
 Alpha virt. eigenvalues --    1.30549   1.33848   1.34969   1.36756   1.38235
 Alpha virt. eigenvalues --    1.38432   1.39678   1.40006   1.41060   1.41973
 Alpha virt. eigenvalues --    1.42150   1.42849   1.44124   1.44403   1.46236
 Alpha virt. eigenvalues --    1.48542   1.49480   1.49729   1.50830   1.51625
 Alpha virt. eigenvalues --    1.54009   1.55509   1.57221   1.61953   1.70132
 Alpha virt. eigenvalues --    1.74230   1.75132   1.79393   1.85782   2.07713
 Alpha virt. eigenvalues --    2.11255   2.24187   2.28089   2.40038   2.57248
 Alpha virt. eigenvalues --    2.62574   2.67857   2.83510   2.96558
          Condensed to atoms (all electrons):
              1          2          3          4          5          6
     1  C    5.503472   0.239003  -0.095507   0.004421  -0.096652   0.236037
     2  C    0.239003   5.514367   0.242452  -0.082305   0.005011  -0.098315
     3  C   -0.095507   0.242452   5.935951   0.222762  -0.091360   0.006351
     4  C    0.004421  -0.082305   0.222762   5.695958   0.233872  -0.091405
     5  C   -0.096652   0.005011  -0.091360   0.233872   5.524833   0.238294
     6  C    0.236037  -0.098315   0.006351  -0.091405   0.238294   5.487551
     7  H   -0.047214   0.393963  -0.050317  -0.001116   0.000330  -0.000958
     8  H   -0.041825   0.396414  -0.046301   0.003614  -0.000249   0.003649
     9  H    0.387227  -0.046292  -0.003028   0.000661  -0.001168  -0.048837
    10  H    0.396436  -0.042719   0.004112  -0.000283   0.003842  -0.042194
    11  H    0.000284  -0.001530  -0.047887   0.406692  -0.044097  -0.000675
    12  H    0.003665  -0.000299   0.003884  -0.044260   0.395642  -0.040681
    13  H   -0.001255   0.000590  -0.002062  -0.049802   0.388789  -0.047653
    14  H   -0.048988  -0.000711   0.000193  -0.001047  -0.048822   0.387157
    15  H   -0.042806   0.003878  -0.000278   0.004014  -0.043817   0.395706
    16  C    0.004230  -0.081991   0.287628  -0.085337   0.004002  -0.000329
    17  H   -0.000017  -0.001380  -0.046257   0.003978  -0.000076   0.000000
    18  H   -0.000093   0.004000  -0.048550  -0.001919  -0.000027   0.000002
    19  H   -0.000052  -0.001364  -0.048334  -0.001351  -0.000032   0.000008
    20  C   -0.002794  -0.094292   0.247361  -0.093196  -0.002632   0.000925
    21  H    0.000025   0.003463  -0.043945  -0.002170   0.000441  -0.000037
    22  H   -0.000727  -0.001591  -0.045317  -0.001415  -0.001265   0.000022
    23  C    0.001394  -0.014899  -0.067751   0.004667  -0.000029  -0.000034
    24  H    0.000183   0.000085   0.003027  -0.000098   0.000007  -0.000001
    25  H   -0.000017   0.000415   0.002658  -0.000093  -0.000001   0.000000
    26  H    0.000166  -0.003144  -0.008891   0.000289  -0.000013  -0.000001
    27  C   -0.000318   0.004080  -0.085693   0.266688  -0.092022   0.004459
    28  H   -0.000001   0.000036  -0.002744  -0.047946   0.003921  -0.000078
    29  H    0.000005  -0.000079  -0.000772  -0.046115  -0.002298  -0.000031
    30  C   -0.000001  -0.000071   0.004921  -0.085707  -0.001133  -0.000083
    31  H    0.000000   0.000001  -0.000090   0.004003   0.000108   0.000000
    32  H    0.000000   0.000001  -0.000099   0.000045   0.000601   0.000008
    33  H    0.000001  -0.000009   0.000105  -0.005170  -0.000029  -0.000053
              7          8          9         10         11         12
     1  C   -0.047214  -0.041825   0.387227   0.396436   0.000284   0.003665
     2  C    0.393963   0.396414  -0.046292  -0.042719  -0.001530  -0.000299
     3  C   -0.050317  -0.046301  -0.003028   0.004112  -0.047887   0.003884
     4  C   -0.001116   0.003614   0.000661  -0.000283   0.406692  -0.044260
     5  C    0.000330  -0.000249  -0.001168   0.003842  -0.044097   0.395642
     6  C   -0.000958   0.003649  -0.048837  -0.042194  -0.000675  -0.040681
     7  H    0.527242  -0.022065   0.003137  -0.002401   0.002026  -0.000017
     8  H   -0.022065   0.512486  -0.002213  -0.001695  -0.000029   0.000004
     9  H    0.003137  -0.002213   0.536862  -0.022627   0.000021  -0.000046
    10  H   -0.002401  -0.001695  -0.022627   0.513305  -0.000024  -0.000051
    11  H    0.002026  -0.000029   0.000021  -0.000024   0.524054  -0.002168
    12  H   -0.000017   0.000004  -0.000046  -0.000051  -0.002168   0.506306
    13  H    0.000023  -0.000016   0.001853  -0.000048   0.003033  -0.022488
    14  H    0.002608  -0.000049   0.003310  -0.002472   0.002367  -0.002314
    15  H   -0.000049  -0.000051  -0.002238  -0.001710  -0.000036  -0.001673
    16  C   -0.003063  -0.001391  -0.000071  -0.000057  -0.002929  -0.000054
    17  H    0.000009   0.000781   0.000003   0.000000  -0.000006   0.000001
    18  H    0.000024  -0.000016   0.000002   0.000001  -0.000033  -0.000001
    19  H    0.002666  -0.000021   0.000000  -0.000001   0.002681  -0.000001
    20  C    0.004159  -0.003066  -0.001203   0.000000   0.003962   0.000025
    21  H   -0.000043  -0.000025   0.000096   0.000000  -0.000058  -0.000018
    22  H   -0.000061   0.000145  -0.000426   0.000048  -0.000055   0.000055
    23  C    0.000035  -0.004730   0.000372  -0.000013  -0.000055   0.000000
    24  H    0.000008  -0.000249   0.000393  -0.000007   0.000001   0.000000
    25  H   -0.000002   0.000186  -0.000004   0.000000   0.000001   0.000000
    26  H   -0.000098   0.002989  -0.000037   0.000002  -0.000010   0.000000
    27  C   -0.000052  -0.000074  -0.000025   0.000004  -0.043691  -0.003008
    28  H    0.000001  -0.000002   0.000000   0.000000  -0.000527  -0.000022
    29  H   -0.000001   0.000002  -0.000005   0.000000   0.002958   0.000188
    30  C   -0.000001   0.000000   0.000000   0.000000  -0.004302  -0.000335
    31  H    0.000000   0.000000   0.000000   0.000000   0.000001   0.000085
    32  H    0.000000   0.000000   0.000000   0.000000   0.000188  -0.000448
    33  H    0.000000   0.000000   0.000000   0.000000   0.004100   0.000480
             13         14         15         16         17         18
     1  C   -0.001255  -0.048988  -0.042806   0.004230  -0.000017  -0.000093
     2  C    0.000590  -0.000711   0.003878  -0.081991  -0.001380   0.004000
     3  C   -0.002062   0.000193  -0.000278   0.287628  -0.046257  -0.048550
     4  C   -0.049802  -0.001047   0.004014  -0.085337   0.003978  -0.001919
     5  C    0.388789  -0.048822  -0.043817   0.004002  -0.000076  -0.000027
     6  C   -0.047653   0.387157   0.395706  -0.000329   0.000000   0.000002
     7  H    0.000023   0.002608  -0.000049  -0.003063   0.000009   0.000024
     8  H   -0.000016  -0.000049  -0.000051  -0.001391   0.000781  -0.000016
     9  H    0.001853   0.003310  -0.002238  -0.000071   0.000003   0.000002
    10  H   -0.000048  -0.002472  -0.001710  -0.000057   0.000000   0.000001
    11  H    0.003033   0.002367  -0.000036  -0.002929  -0.000006  -0.000033
    12  H   -0.022488  -0.002314  -0.001673  -0.000054   0.000001  -0.000001
    13  H    0.534475   0.003256  -0.002280  -0.000072   0.000001   0.000001
    14  H    0.003256   0.536836  -0.022527  -0.000044   0.000000   0.000000
    15  H   -0.002280  -0.022527   0.518115   0.000004   0.000000   0.000000
    16  C   -0.000072  -0.000044   0.000004   5.375549   0.384532   0.383460
    17  H    0.000001   0.000000   0.000000   0.384532   0.506773  -0.025389
    18  H    0.000001   0.000000   0.000000   0.383460  -0.025389   0.512712
    19  H    0.000000   0.000003   0.000000   0.383061  -0.024648  -0.025225
    20  C   -0.000166   0.000001  -0.000010  -0.095900  -0.002223  -0.001199
    21  H   -0.000030   0.000001   0.000001  -0.001338   0.000087   0.001560
    22  H    0.000338  -0.000013   0.000006   0.003613  -0.000039  -0.000007
    23  C    0.000061   0.000001   0.000000  -0.012651  -0.003175   0.000504
    24  H    0.000000   0.000000   0.000000   0.000365   0.000171  -0.000015
    25  H    0.000000   0.000000   0.000000   0.000283  -0.000229   0.000038
    26  H   -0.000002   0.000000   0.000000  -0.002829   0.001272   0.000145
    27  C   -0.001782  -0.000049  -0.000075  -0.010125   0.000201  -0.002169
    28  H    0.000031   0.000001   0.000001  -0.003250   0.000118   0.001244
    29  H    0.002801   0.000000   0.000001   0.000577  -0.000020   0.000020
    30  C    0.000056  -0.000001   0.000001   0.000109   0.000000   0.000116
    31  H   -0.000017   0.000000   0.000000   0.000005   0.000000  -0.000004
    32  H    0.000290   0.000002   0.000000  -0.000007   0.000000  -0.000002
    33  H    0.000045  -0.000001   0.000001  -0.000001   0.000000  -0.000001
             19         20         21         22         23         24
     1  C   -0.000052  -0.002794   0.000025  -0.000727   0.001394   0.000183
     2  C   -0.001364  -0.094292   0.003463  -0.001591  -0.014899   0.000085
     3  C   -0.048334   0.247361  -0.043945  -0.045317  -0.067751   0.003027
     4  C   -0.001351  -0.093196  -0.002170  -0.001415   0.004667  -0.000098
     5  C   -0.000032  -0.002632   0.000441  -0.001265  -0.000029   0.000007
     6  C    0.000008   0.000925  -0.000037   0.000022  -0.000034  -0.000001
     7  H    0.002666   0.004159  -0.000043  -0.000061   0.000035   0.000008
     8  H   -0.000021  -0.003066  -0.000025   0.000145  -0.004730  -0.000249
     9  H    0.000000  -0.001203   0.000096  -0.000426   0.000372   0.000393
    10  H   -0.000001   0.000000   0.000000   0.000048  -0.000013  -0.000007
    11  H    0.002681   0.003962  -0.000058  -0.000055  -0.000055   0.000001
    12  H   -0.000001   0.000025  -0.000018   0.000055   0.000000   0.000000
    13  H    0.000000  -0.000166  -0.000030   0.000338   0.000061   0.000000
    14  H    0.000003   0.000001   0.000001  -0.000013   0.000001   0.000000
    15  H    0.000000  -0.000010   0.000001   0.000006   0.000000   0.000000
    16  C    0.383061  -0.095900  -0.001338   0.003613  -0.012651   0.000365
    17  H   -0.024648  -0.002223   0.000087  -0.000039  -0.003175   0.000171
    18  H   -0.025225  -0.001199   0.001560  -0.000007   0.000504  -0.000015
    19  H    0.511130   0.004432  -0.000032  -0.000063   0.000009  -0.000002
    20  C    0.004432   5.551526   0.398347   0.396081   0.222363  -0.044907
    21  H   -0.000032   0.398347   0.491905  -0.023321  -0.042438   0.002142
    22  H   -0.000063   0.396081  -0.023321   0.499077  -0.043030  -0.005161
    23  C    0.000009   0.222363  -0.042438  -0.043030   5.412691   0.383623
    24  H   -0.000002  -0.044907   0.002142  -0.005161   0.383623   0.509788
    25  H    0.000004  -0.044697  -0.004710   0.002252   0.383889  -0.024224
    26  H   -0.000029  -0.049649   0.002428   0.002453   0.385029  -0.027056
    27  C    0.000381  -0.008746  -0.002192   0.000212   0.000135  -0.000002
    28  H    0.000151  -0.000073  -0.000049   0.000021  -0.000047   0.000000
    29  H    0.000001  -0.001771  -0.001007   0.000038   0.000137  -0.000001
    30  C   -0.000031   0.000179   0.000191  -0.000027  -0.000001   0.000000
    31  H    0.000000   0.000001  -0.000002   0.000000   0.000000   0.000000
    32  H    0.000000   0.000000  -0.000003   0.000000   0.000000   0.000000
    33  H    0.000000  -0.000008  -0.000005   0.000000   0.000000   0.000000
             25         26         27         28         29         30
     1  C   -0.000017   0.000166  -0.000318  -0.000001   0.000005  -0.000001
     2  C    0.000415  -0.003144   0.004080   0.000036  -0.000079  -0.000071
     3  C    0.002658  -0.008891  -0.085693  -0.002744  -0.000772   0.004921
     4  C   -0.000093   0.000289   0.266688  -0.047946  -0.046115  -0.085707
     5  C   -0.000001  -0.000013  -0.092022   0.003921  -0.002298  -0.001133
     6  C    0.000000  -0.000001   0.004459  -0.000078  -0.000031  -0.000083
     7  H   -0.000002  -0.000098  -0.000052   0.000001  -0.000001  -0.000001
     8  H    0.000186   0.002989  -0.000074  -0.000002   0.000002   0.000000
     9  H   -0.000004  -0.000037  -0.000025   0.000000  -0.000005   0.000000
    10  H    0.000000   0.000002   0.000004   0.000000   0.000000   0.000000
    11  H    0.000001  -0.000010  -0.043691  -0.000527   0.002958  -0.004302
    12  H    0.000000   0.000000  -0.003008  -0.000022   0.000188  -0.000335
    13  H    0.000000  -0.000002  -0.001782   0.000031   0.002801   0.000056
    14  H    0.000000   0.000000  -0.000049   0.000001   0.000000  -0.000001
    15  H    0.000000   0.000000  -0.000075   0.000001   0.000001   0.000001
    16  C    0.000283  -0.002829  -0.010125  -0.003250   0.000577   0.000109
    17  H   -0.000229   0.001272   0.000201   0.000118  -0.000020   0.000000
    18  H    0.000038   0.000145  -0.002169   0.001244   0.000020   0.000116
    19  H    0.000004  -0.000029   0.000381   0.000151   0.000001  -0.000031
    20  C   -0.044697  -0.049649  -0.008746  -0.000073  -0.001771   0.000179
    21  H   -0.004710   0.002428  -0.002192  -0.000049  -0.001007   0.000191
    22  H    0.002252   0.002453   0.000212   0.000021   0.000038  -0.000027
    23  C    0.383889   0.385029   0.000135  -0.000047   0.000137  -0.000001
    24  H   -0.024224  -0.027056  -0.000002   0.000000  -0.000001   0.000000
    25  H    0.506713  -0.026644   0.000000   0.000001  -0.000001   0.000000
    26  H   -0.026644   0.518512  -0.000014  -0.000001  -0.000003   0.000000
    27  C    0.000000  -0.000014   5.503208   0.394588   0.388855   0.242160
    28  H    0.000001  -0.000001   0.394588   0.503143  -0.024838  -0.043137
    29  H   -0.000001  -0.000003   0.388855  -0.024838   0.511418  -0.042606
    30  C    0.000000   0.000000   0.242160  -0.043137  -0.042606   5.375454
    31  H    0.000000   0.000000  -0.044051  -0.003333   0.000359   0.384029
    32  H    0.000000   0.000000  -0.045876   0.002957  -0.003577   0.381108
    33  H    0.000000   0.000000  -0.049250   0.000418   0.003244   0.381456
             31         32         33
     1  C    0.000000   0.000000   0.000001
     2  C    0.000001   0.000001  -0.000009
     3  C   -0.000090  -0.000099   0.000105
     4  C    0.004003   0.000045  -0.005170
     5  C    0.000108   0.000601  -0.000029
     6  C    0.000000   0.000008  -0.000053
     7  H    0.000000   0.000000   0.000000
     8  H    0.000000   0.000000   0.000000
     9  H    0.000000   0.000000   0.000000
    10  H    0.000000   0.000000   0.000000
    11  H    0.000001   0.000188   0.004100
    12  H    0.000085  -0.000448   0.000480
    13  H   -0.000017   0.000290   0.000045
    14  H    0.000000   0.000002  -0.000001
    15  H    0.000000   0.000000   0.000001
    16  C    0.000005  -0.000007  -0.000001
    17  H    0.000000   0.000000   0.000000
    18  H   -0.000004  -0.000002  -0.000001
    19  H    0.000000   0.000000   0.000000
    20  C    0.000001   0.000000  -0.000008
    21  H   -0.000002  -0.000003  -0.000005
    22  H    0.000000   0.000000   0.000000
    23  C    0.000000   0.000000   0.000000
    24  H    0.000000   0.000000   0.000000
    25  H    0.000000   0.000000   0.000000
    26  H    0.000000   0.000000   0.000000
    27  C   -0.044051  -0.045876  -0.049250
    28  H   -0.003333   0.002957   0.000418
    29  H    0.000359  -0.003577   0.003244
    30  C    0.384029   0.381108   0.381456
    31  H    0.509648  -0.025136  -0.025813
    32  H   -0.025136   0.513636  -0.026551
    33  H   -0.025813  -0.026551   0.517537
 Mulliken atomic charges:
              1
     1  C   -0.398283
     2  C   -0.336770
     3  C   -0.226223
     4  C   -0.210931
     5  C   -0.373970
     6  C   -0.388806
     7  H    0.191226
     8  H    0.203796
     9  H    0.194281
    10  H    0.198549
    11  H    0.195744
    12  H    0.207548
    13  H    0.192033
    14  H    0.191301
    15  H    0.195823
    16  C   -0.525981
    17  H    0.205531
    18  H    0.200820
    19  H    0.196659
    20  C   -0.382832
    21  H    0.220735
    22  H    0.218155
    23  C   -0.606059
    24  H    0.201932
    25  H    0.204180
    26  H    0.205135
    27  C   -0.415756
    28  H    0.219414
    29  H    0.212525
    30  C   -0.592348
    31  H    0.200206
    32  H    0.202861
    33  H    0.199506
 Sum of Mulliken atomic charges =   0.00000
 Mulliken charges with hydrogens summed into heavy atoms:
              1
     1  C   -0.005454
     2  C    0.058252
     3  C   -0.226223
     4  C   -0.015187
     5  C    0.025611
     6  C   -0.001681
    16  C    0.077029
    20  C    0.056058
    23  C    0.005187
    27  C    0.016182
    30  C    0.010225
 Sum of Mulliken charges with hydrogens summed into heavy atoms =   0.00000
 Electronic spatial extent (au):  <R**2>=           1936.7820
 Charge=              0.0000 electrons
 Dipole moment (field-independent basis, Debye):
    X=              0.0417    Y=             -0.0749    Z=             -0.0845  Tot=              0.1204
 Quadrupole moment (field-independent basis, Debye-Ang):
   XX=            -76.4146   YY=            -75.2179   ZZ=            -74.4671
   XY=             -0.3602   XZ=              0.0419   YZ=              0.1565
 Traceless Quadrupole moment (field-independent basis, Debye-Ang):
   XX=             -1.0480   YY=              0.1486   ZZ=              0.8994
   XY=             -0.3602   XZ=              0.0419   YZ=              0.1565
 Octapole moment (field-independent basis, Debye-Ang**2):
  XXX=             -2.5762  YYY=             -5.1249  ZZZ=             -0.5686  XYY=              2.2170
  XXY=              0.5956  XXZ=              1.1844  XZZ=              1.1867  YZZ=              1.9077
  YYZ=             -1.1985  XYZ=              0.7447
 Hexadecapole moment (field-independent basis, Debye-Ang**3):
 XXXX=          -1401.0330 YYYY=           -963.3500 ZZZZ=           -377.2549 XXXY=             -2.5061
 XXXZ=             -4.2607 YYYX=             -6.0683 YYYZ=              3.7624 ZZZX=              3.9067
 ZZZY=              1.6995 XXYY=           -387.9209 XXZZ=           -291.6796 YYZZ=           -225.3248
 XXYZ=             -3.3880 YYXZ=             -1.1330 ZZXY=             -0.8595
 N-N= 7.134002578979D+02 E-N=-2.419088977190D+03  KE= 4.268673903986D+02
 1\1\GINC-NODE02\SP\RHF\3-21G\C11H22\SC4102.09\29-Jun-2022\0\\# hf/3-21
 g geom=connectivity\\g\\0,1\C,0,-2.49517155,-2.81270897,0.\C,0,-0.9800
 6555,-2.81270897,0.\C,0,-0.42813455,-1.40163097,0.\C,0,-0.97779755,-0.
 59709397,1.160661\C,0,-2.49292255,-0.59643297,1.160172\C,0,-3.04572255
 ,-2.00705397,1.158876\H,0,-0.60751655,-3.35834297,0.906562\H,0,-0.6047
 7155,-3.36256797,-0.90191\H,0,-2.86785955,-2.37967997,-0.965385\H,0,-2
 .87076855,-3.86692897,0.063502\H,0,-0.60526255,-1.03193897,2.125272\H,
 0,-2.86824255,-0.04700497,2.062286\H,0,-2.86477755,-0.04983197,0.25384
 9\H,0,-2.77971855,-2.51277597,2.124191\H,0,-4.16427055,-1.97199297,1.0
 93938\C,0,1.10874366,-1.44833227,0.08616473\H,0,1.49599687,-1.99948346
 ,-0.7452\H,0,1.49757198,-0.45169294,0.06560812\H,0,1.40049264,-1.92626
 872,0.99795379\C,0,-0.79693062,-0.70742782,-1.3242626\H,0,-0.39266898,
 0.28323258,-1.33229478\H,0,-1.86179565,-0.65886857,-1.41702286\C,0,-0.
 21495162,-1.50892426,-2.5034589\H,0,-1.00710149,-1.80485966,-3.1590661
 1\H,0,0.48256038,-0.8995372,-3.0392055\H,0,0.28404813,-2.37925962,-2.1
 3141641\C,0,-0.46118614,0.85116639,1.07548716\H,0,0.60232771,0.8441518
 2,0.95806016\H,0,-0.90944337,1.34097773,0.2364101\C,0,-0.83008449,1.60
 455978,2.36696399\H,0,-0.15766678,2.42525541,2.5055753\H,0,-1.83176803
 ,1.97305249,2.29118005\H,0,-0.75713104,0.93883281,3.20146108\\Version=
 EM64L-G09RevC.01\State=1-A\HF=-426.9732019\RMSD=8.623e-09\Dipole=0.004
 6064,0.0432297,-0.0187881\Quadrupole=0.1405129,0.0542248,-0.1947377,0.
 0514378,0.3734328,-0.668649\PG=C01 [X(C11H22)]\\@


 I (ERNEST RUTHERFORD) CAME INTO THE ROOM, WHICH WAS HALF DARK, AND PRESENTLY
 SPOTTED LORD KELVIN IN THE AUDIENCE AND REALIZED I WAS IN TROUBLE AT
 THE LAST PART OF MY SPEECH DEALING THE AGE OF THE EARTH, WHERE MY VIEWS
 CONFLICTED WITH HIS.  TO MY RELIEF KELVIN FELL FAST ASLEEP, BUT AS I CAME
 TO THE IMPORTANT POINT, I SAW THE OLD BIRD SIT UP AND COCK A BALEFUL GLANCE
 AT ME! THEN A SUDDEN INSPIRATION CAME AND I SAID LORD KELVIN HAD LIMITED
 THE AGE OF THE EARTH PROVIDED NO NEW SOURCE WAS DISCOVERED. THAT
 PROPHETIC UTTERANCE REFERS TO WHAT WE ARE NOW CONSIDERING TONIGHT, RADIUM!
 BEHOLD!  THE OLD BOY BEAMED UPON ME.
 Job cpu time:  0 days  0 hours  0 minutes 15.6 seconds.
 File lengths (MBytes):  RWF=     15 Int=      0 D2E=      0 Chk=      3 Scr=      1
 Normal termination of Gaussian 09 at Wed Jun 29 17:38:47 2022.
