 Entering Gaussian System, Link 0=g09
 Input=/home/iiit/sc4102.04/Tut_assignment_5/Problem_1/Mol_6/mol_6.com
 Output=/home/iiit/sc4102.04/Tut_assignment_5/Problem_1/Mol_6/mol_6.log
 Initial command:
 /global/g09-revC/l1.exe /scratch/Gau-18897.inp -scrdir=/scratch/
 Entering Link 1 = /global/g09-revC/l1.exe PID=     18899.
  
 Copyright (c) 1988,1990,1992,1993,1995,1998,2003,2009,2011,
            Gaussian, Inc.  All Rights Reserved.
  
 This is part of the Gaussian(R) 09 program.  It is based on
 the Gaussian(R) 03 system (copyright 2003, Gaussian, Inc.),
 the Gaussian(R) 98 system (copyright 1998, Gaussian, Inc.),
 the Gaussian(R) 94 system (copyright 1995, Gaussian, Inc.),
 the Gaussian 92(TM) system (copyright 1992, Gaussian, Inc.),
 the Gaussian 90(TM) system (copyright 1990, Gaussian, Inc.),
 the Gaussian 88(TM) system (copyright 1988, Gaussian, Inc.),
 the Gaussian 86(TM) system (copyright 1986, Carnegie Mellon
 University), and the Gaussian 82(TM) system (copyright 1983,
 Carnegie Mellon University). Gaussian is a federally registered
 trademark of Gaussian, Inc.
  
 This software contains proprietary and confidential information,
 including trade secrets, belonging to Gaussian, Inc.
  
 This software is provided under written license and may be
 used, copied, transmitted, or stored only in accord with that
 written license.
  
 The following legend is applicable only to US Government
 contracts under FAR:
  
                    RESTRICTED RIGHTS LEGEND
  
 Use, reproduction and disclosure by the US Government is
 subject to restrictions as set forth in subparagraphs (a)
 and (c) of the Commercial Computer Software - Restricted
 Rights clause in FAR 52.227-19.
  
 Gaussian, Inc.
 340 Quinnipiac St., Bldg. 40, Wallingford CT 06492
  
  
 ---------------------------------------------------------------
 Warning -- This program may not be used in any manner that
 competes with the business of Gaussian, Inc. or will provide
 assistance to any competitor of Gaussian, Inc.  The licensee
 of this program is prohibited from giving any competitor of
 Gaussian, Inc. access to this program.  By using this program,
 the user acknowledges that Gaussian, Inc. is engaged in the
 business of creating and licensing software in the field of
 computational chemistry and represents and warrants to the
 licensee that it is not a competitor of Gaussian, Inc. and that
 it will not use this program in any manner prohibited above.
 ---------------------------------------------------------------
  

 Cite this work as:
 Gaussian 09, Revision C.01,
 M. J. Frisch, G. W. Trucks, H. B. Schlegel, G. E. Scuseria, 
 M. A. Robb, J. R. Cheeseman, G. Scalmani, V. Barone, B. Mennucci, 
 G. A. Petersson, H. Nakatsuji, M. Caricato, X. Li, H. P. Hratchian, 
 A. F. Izmaylov, J. Bloino, G. Zheng, J. L. Sonnenberg, M. Hada, 
 M. Ehara, K. Toyota, R. Fukuda, J. Hasegawa, M. Ishida, T. Nakajima, 
 Y. Honda, O. Kitao, H. Nakai, T. Vreven, J. A. Montgomery, Jr., 
 J. E. Peralta, F. Ogliaro, M. Bearpark, J. J. Heyd, E. Brothers, 
 K. N. Kudin, V. N. Staroverov, T. Keith, R. Kobayashi, J. Normand, 
 K. Raghavachari, A. Rendell, J. C. Burant, S. S. Iyengar, J. Tomasi, 
 M. Cossi, N. Rega, J. M. Millam, M. Klene, J. E. Knox, J. B. Cross, 
 V. Bakken, C. Adamo, J. Jaramillo, R. Gomperts, R. E. Stratmann, 
 O. Yazyev, A. J. Austin, R. Cammi, C. Pomelli, J. W. Ochterski, 
 R. L. Martin, K. Morokuma, V. G. Zakrzewski, G. A. Voth, 
 P. Salvador, J. J. Dannenberg, S. Dapprich, A. D. Daniels, 
 O. Farkas, J. B. Foresman, J. V. Ortiz, J. Cioslowski, 
 and D. J. Fox, Gaussian, Inc., Wallingford CT, 2010.
 
 ******************************************
 Gaussian 09:  EM64L-G09RevC.01 23-Sep-2011
                26-Jun-2022 
 ******************************************
 %chk=mol_6.chk
 ----------------------------
 # hf/3-21g geom=connectivity
 ----------------------------
 1/38=1,57=2/1;
 2/12=2,17=6,18=5,40=1/2;
 3/5=5,11=9,16=1,25=1,30=1/1,2,3;
 4//1;
 5/5=2,38=5/2;
 6/7=2,8=2,9=2,10=2,28=1/1;
 99/5=1,9=1/99;
 -----
 mol_6
 -----
 Charge =  0 Multiplicity = 1
 Symbolic Z-Matrix:
 C                     7.51997   1.92489  -2.68393 
 C                     9.03507   1.92489  -2.68393 
 C                     9.587     3.33597  -2.68393 
 C                     9.03734   4.1405   -1.52327 
 C                     7.52222   4.14116  -1.52375 
 C                     6.96942   2.73054  -1.52505 
 H                     10.7056   3.30198  -2.62121 
 H                     9.40762   1.37925  -1.77736 
 H                     9.41037   1.37503  -3.58584 
 H                     7.14728   2.35792  -3.64931 
 H                     9.40988   3.70566  -0.55865 
 H                     7.1469    4.69059  -0.62164 
 H                     7.15036   4.68777  -2.43008 
 H                     7.23542   2.22482  -0.55974 
 H                     5.85087   2.7656   -1.58999 
 H                     9.31839   3.8416   -3.64847 
 C                     7.00395   0.47654  -2.59668 
 C                     7.54028  -0.33238  -3.79234 
 H                     8.53423  -0.66666  -3.57972 
 H                     6.90813  -1.17871  -3.9627 
 H                     7.55111   0.28619  -4.66536 
 C                     7.49131  -0.16382  -1.28367 
 H                     7.10294   0.38695  -0.45257 
 H                     7.14883  -1.17622  -1.23197 
 H                     8.56077  -0.14713  -1.25416 
 C                     5.46424   0.47747  -2.6268 
 H                     5.12277   1.14983  -3.3859 
 H                     5.11107  -0.50987  -2.8397 
 H                     5.0891    0.79311  -1.67573 
 C                     9.55395   5.58876  -1.60844 
 H                     9.18119   6.14988  -0.77712 
 H                     10.62374   5.58767  -1.58709 
 H                     9.21587   6.035    -2.52029 
 
                          Input orientation:                          
 ---------------------------------------------------------------------
 Center     Atomic      Atomic             Coordinates (Angstroms)
 Number     Number       Type             X           Y           Z
 ---------------------------------------------------------------------
      1          6           0        7.519966    1.924889   -2.683926
      2          6           0        9.035072    1.924889   -2.683926
      3          6           0        9.587003    3.335967   -2.683926
      4          6           0        9.037340    4.140504   -1.523265
      5          6           0        7.522215    4.141165   -1.523754
      6          6           0        6.969415    2.730544   -1.525050
      7          1           0       10.705602    3.301976   -2.621212
      8          1           0        9.407621    1.379255   -1.777364
      9          1           0        9.410366    1.375030   -3.585836
     10          1           0        7.147278    2.357918   -3.649311
     11          1           0        9.409875    3.705659   -0.558654
     12          1           0        7.146895    4.690593   -0.621640
     13          1           0        7.150360    4.687766   -2.430077
     14          1           0        7.235419    2.224822   -0.559735
     15          1           0        5.850867    2.765605   -1.589988
     16          1           0        9.318385    3.841600   -3.648472
     17          6           0        7.003949    0.476540   -2.596684
     18          6           0        7.540278   -0.332381   -3.792342
     19          1           0        8.534233   -0.666662   -3.579716
     20          1           0        6.908134   -1.178710   -3.962700
     21          1           0        7.551110    0.286186   -4.665358
     22          6           0        7.491308   -0.163823   -1.283665
     23          1           0        7.102939    0.386955   -0.452574
     24          1           0        7.148834   -1.176215   -1.231971
     25          1           0        8.560771   -0.147134   -1.254160
     26          6           0        5.464244    0.477475   -2.626801
     27          1           0        5.122766    1.149829   -3.385900
     28          1           0        5.111074   -0.509868   -2.839699
     29          1           0        5.089097    0.793112   -1.675729
     30          6           0        9.553952    5.588764   -1.608439
     31          1           0        9.181193    6.149882   -0.777116
     32          1           0       10.623738    5.587674   -1.587088
     33          1           0        9.215868    6.034995   -2.520293
 ---------------------------------------------------------------------
                    Distance matrix (angstroms):
                    1          2          3          4          5
     1  C    0.000000
     2  C    1.515106   0.000000
     3  C    2.502755   1.515180   0.000000
     4  C    2.925493   2.501217   1.515435   0.000000
     5  C    2.501576   2.923459   2.501538   1.515125   0.000000
     6  C    1.514985   2.501802   2.925970   2.502859   1.515071
     7  H    3.471106   2.165865   1.120871   2.166037   3.470246
     8  H    2.163981   1.121768   2.163967   2.797529   3.353688
     9  H    2.165502   1.120996   2.165621   3.470042   3.933039
    10  H    1.121775   2.164081   2.800144   3.357085   2.799739
    11  H    3.355545   2.797928   2.164446   1.121761   2.164334
    12  H    3.470061   3.932856   3.470182   2.165481   1.120958
    13  H    2.799024   3.354112   2.798040   2.163908   1.121816
    14  H    2.164050   2.800160   3.358091   2.800919   2.164245
    15  H    2.165501   3.470254   3.934555   3.471082   2.165631
    16  H    2.799722   2.164347   1.121681   2.164448   2.798284
    17  C    1.540000   2.496155   3.854362   4.325684   3.853473
    18  C    2.514809   2.925451   4.344473   5.234176   5.015918
    19  H    2.923578   2.787367   4.234595   5.252708   5.326007
    20  H    3.412027   3.973846   5.403139   6.227230   5.884439
    21  H    2.571457   2.968764   4.167985   5.190125   4.973065
    22  C    2.514810   2.950704   4.312910   4.579831   4.311788
    23  H    2.741913   3.328260   4.454905   4.356308   3.926488
    24  H    3.444236   3.909337   5.330350   5.649673   5.338453
    25  H    2.724112   2.561732   3.902483   4.322427   4.420496
    26  C    2.514809   3.853451   5.017109   5.234748   4.344489
    27  H    2.615350   4.049645   5.020097   5.266634   4.262984
    28  H    3.428566   4.620613   5.903275   6.226919   5.401613
    29  H    2.864700   4.227068   5.264383   5.178504   4.141572
    30  C    4.326402   3.853556   2.496570   1.540000   2.496131
    31  H    4.924040   4.637655   3.423262   2.148263   2.710096
    32  H    4.924678   4.140400   2.710730   2.148263   3.422841
    33  H    4.449251   4.117334   2.729335   2.148263   2.729129
                    6          7          8          9         10
     6  C    0.000000
     7  H    3.935378   0.000000
     8  H    2.799016   2.468540   0.000000
     9  H    3.470230   2.514211   1.808479   0.000000
    10  H    2.164017   3.822290   3.093722   2.468130   0.000000
    11  H    2.800110   2.469011   2.626293   3.820427   4.060531
    12  H    2.165512   4.311721   4.172714   4.990262   3.822063
    13  H    2.163916   3.820562   4.058018   4.173443   2.629588
    14  H    1.121760   4.177573   2.629841   3.822280   3.093697
    15  H    1.120980   4.991950   3.821986   4.311281   2.467327
    16  H    3.355745   1.808543   3.093889   2.469079   2.629642
    17  C    2.496022   4.656815   2.695147   2.752554   2.160591
    18  C    3.853311   4.959775   3.236789   2.540694   2.722612
    19  H    4.267471   4.624246   2.863050   2.221745   3.328148
    20  H    4.607402   6.024691   4.191218   3.595105   3.558531
    21  H    4.021789   4.819164   3.603046   2.409934   2.342543
    22  C    2.950931   4.912482   2.509399   3.369101   3.474739
    23  H    2.580784   5.116593   2.837479   4.014704   3.755768
    24  H    3.921843   5.885133   3.453983   4.142953   4.281779
    25  H    3.299519   4.285498   1.822296   2.911273   3.742993
    26  C    2.925016   5.953963   4.133397   4.158994   2.722903
    27  H    3.061296   6.031960   4.582577   4.298163   2.372238
    28  H    3.960051   6.773229   4.812240   4.753259   3.609126
    29  H    2.704060   6.223622   4.359306   4.760305   3.252653
    30  C    3.854375   2.753436   4.215438   4.656852   4.516149
    31  H    4.140439   3.719554   4.879616   5.544424   5.173520
    32  H    4.639086   2.510086   4.384739   4.818053   5.173960
    33  H    4.117822   3.114304   4.718541   4.784192   4.367453
                   11         12         13         14         15
    11  H    0.000000
    12  H    2.468834   0.000000
    13  H    3.093892   1.808443   0.000000
    14  H    2.630806   2.468136   3.093785   0.000000
    15  H    3.822812   2.514551   2.467617   1.808550   0.000000
    16  H    3.094160   3.820716   2.626940   4.061159   4.173584
    17  C    4.513231   4.656122   4.217063   2.694295   2.753698
    18  C    5.500718   5.953013   5.216290   4.133034   4.159566
    19  H    5.386163   6.274958   5.648599   4.378114   4.789564
    20  H    6.457809   6.757840   6.068208   4.824035   4.722837
    21  H    5.657987   5.992816   4.952877   4.551275   4.300726
    22  C    4.379432   4.911440   4.996841   2.509019   3.371413
    23  H    4.043142   4.307182   4.733893   1.845749   2.918796
    24  H    5.422025   5.898470   5.985126   3.467917   4.165434
    25  H    4.006085   5.079639   5.171876   2.804454   3.992544
    26  C    5.501492   4.960076   4.539630   3.234663   2.541653
    27  H    5.736278   4.926991   4.188285   3.688648   2.523125
    28  H    6.438441   6.009089   5.598381   4.146035   3.582987
    29  H    5.329157   4.531666   4.470590   2.811038   2.116217
    30  C    2.160762   2.752164   2.695207   4.217995   4.656544
    31  H    2.464599   2.508399   2.999057   4.386273   4.817174
    32  H    2.464370   3.718236   3.685759   4.883127   5.544761
    33  H    3.051471   3.113350   2.467689   4.720528   4.783055
                   16         17         18         19         20
    16  H    0.000000
    17  C    4.217405   0.000000
    18  C    4.539216   1.540000   0.000000
    19  H    4.576466   2.148263   1.070000   0.000000
    20  H    5.577774   2.148263   1.070000   1.747303   0.000000
    21  H    4.098571   2.148263   1.070000   1.747303   1.747303
    22  C    4.997392   1.540000   2.514809   2.571457   2.923579
    23  H    5.201590   2.148263   3.444236   3.596906   3.848408
    24  H    5.977031   2.148263   2.724111   2.773244   2.741318
    25  H    4.713460   2.148263   2.741913   2.383028   3.336397
    26  C    5.216853   1.540000   2.514810   3.412027   2.571457
    27  H    4.991773   2.148263   2.864700   3.869795   2.990374
    28  H    6.106624   2.148263   2.615351   3.505742   2.222140
    29  H    5.574215   2.148263   3.428567   4.198222   3.525225
    30  C    2.696259   5.797756   6.624521   6.637478   7.638167
    31  H    3.686689   6.343345   7.335116   7.398540   8.308008
    32  H    3.000338   6.343961   7.029788   6.888636   8.076707
    33  H    2.468660   5.982880   6.705907   6.819033   7.709975
                   21         22         23         24         25
    21  H    0.000000
    22  C    3.412027   0.000000
    23  H    4.237755   1.070000   0.000000
    24  H    3.753477   1.070000   1.747303   0.000000
    25  H    3.583776   1.070000   1.747303   1.747303   0.000000
    26  C    2.923580   2.514809   2.724111   2.741913   3.444236
    27  H    2.877455   3.428566   3.620424   3.762293   4.248095
    28  H    3.149684   2.864700   3.235767   2.679790   3.813912
    29  H    3.905940   2.615351   2.390949   2.884041   3.621368
    30  C    6.439989   6.119823   5.865348   7.189664   5.832020
    31  H    7.222086   6.555545   6.134802   7.616369   6.345463
    32  H    6.857300   6.556210   6.382055   7.612573   6.103663
    33  H    6.357793   6.551999   6.374974   7.611436   6.344365
                   26         27         28         29         30
    26  C    0.000000
    27  H    1.070000   0.000000
    28  H    1.070000   1.747303   0.000000
    29  H    1.070000   1.747303   1.747303   0.000000
    30  C    6.624806   6.519119   7.645160   6.552689   0.000000
    31  H    7.029456   6.948173   8.072942   6.800569   1.070000
    32  H    7.335906   7.293208   8.314957   7.323109   1.070000
    33  H    6.706121   6.431765   7.732179   6.724646   1.070000
                   31         32         33
    31  H    0.000000
    32  H    1.747303   0.000000
    33  H    1.747303   1.747303   0.000000
 Stoichiometry    C11H22
 Framework group  C1[X(C11H22)]
 Deg. of freedom    93
 Full point group                 C1      NOp   1
 Largest Abelian subgroup         C1      NOp   1
 Largest concise Abelian subgroup C1      NOp   1
                         Standard orientation:                         
 ---------------------------------------------------------------------
 Center     Atomic      Atomic             Coordinates (Angstroms)
 Number     Number       Type             X           Y           Z
 ---------------------------------------------------------------------
      1          6           0       -0.469707    0.000221   -0.428406
      2          6           0        0.200539   -1.250351    0.102994
      3          6           0        1.685460   -1.251215   -0.198302
      4          6           0        2.354537   -0.000252    0.334586
      5          6           0        1.684778    1.250323   -0.197476
      6          6           0        0.199646    1.251450    0.102229
      7          1           0        2.161479   -2.156392    0.260406
      8          1           0        0.045539   -1.313445    1.212209
      9          1           0       -0.276078   -2.155381   -0.355689
     10          1           0       -0.424161   -0.000123   -1.549255
     11          1           0        2.307190   -0.000725    1.455347
     12          1           0        2.161040    2.155329    0.261526
     13          1           0        1.840978    1.313266   -1.306579
     14          1           0        0.042974    1.316395    1.211094
     15          1           0       -0.275802    2.155899   -0.358768
     16          1           0        1.841033   -1.313674   -1.307385
     17          6           0       -1.956118   -0.000127   -0.025687
     18          6           0       -2.641123   -1.257720   -0.592103
     19          1           0       -2.457835   -2.087289    0.058374
     20          1           0       -3.695005   -1.087634   -0.664929
     21          1           0       -2.246475   -1.472019   -1.563303
     22          6           0       -2.071902   -0.000100    1.509954
     23          1           0       -1.612757    0.883190    1.902236
     24          1           0       -3.104478   -0.019689    1.789779
     25          1           0       -1.578917   -0.863783    1.904819
     26          6           0       -2.641738    1.257090   -0.592194
     27          1           0       -2.335546    1.403727   -1.606908
     28          1           0       -3.703708    1.131751   -0.554659
     29          1           0       -2.362332    2.109312   -0.008628
     30          6           0        3.841498    0.000537   -0.066096
     31          1           0        4.316681    0.874381    0.328235
     32          1           0        4.317554   -0.872922    0.328037
     33          1           0        3.923406    0.000699   -1.132956
 ---------------------------------------------------------------------
 Rotational constants (GHZ):      2.2250011      0.6398874      0.5760277
 Standard basis: 3-21G (6D, 7F)
 There are   143 symmetry adapted basis functions of A   symmetry.
 Integral buffers will be    131072 words long.
 Raffenetti 1 integral format.
 Two-electron integral symmetry is turned on.
   143 basis functions,   231 primitive gaussians,   143 cartesian basis functions
    44 alpha electrons       44 beta electrons
       nuclear repulsion energy       696.7347802237 Hartrees.
 NAtoms=   33 NActive=   33 NUniq=   33 SFac= 1.00D+00 NAtFMM=   60 NAOKFM=F Big=F
 One-electron integrals computed using PRISM.
 NBasis=   143 RedAO= T  NBF=   143
 NBsUse=   143 1.00D-06 NBFU=   143
 Harris functional with IExCor=  205 diagonalized for initial guess.
 ExpMin= 1.83D-01 ExpMax= 1.72D+02 ExpMxC= 1.72D+02 IAcc=1 IRadAn=         1 AccDes= 0.00D+00
 HarFok:  IExCor=  205 AccDes= 0.00D+00 IRadAn=         1 IDoV= 1
 ScaDFX=  1.000000  1.000000  1.000000  1.000000
 FoFCou: FMM=F IPFlag=           0 FMFlag=      100000 FMFlg1=           0
         NFxFlg=           0 DoJE=T BraDBF=F KetDBF=T FulRan=T
         Omega=  0.000000  0.000000  1.000000  0.000000  0.000000 ICntrl=     500 IOpCl=  0
         NMat0=    1 NMatS0=    1 NMatT0=    0 NMatD0=    1 NMtDS0=    0 NMtDT0=    0
         I1Cent=           4 NGrid=           0.
 Petite list used in FoFCou.
 Initial guess orbital symmetries:
       Occupied  (A) (A) (A) (A) (A) (A) (A) (A) (A) (A) (A) (A)
                 (A) (A) (A) (A) (A) (A) (A) (A) (A) (A) (A) (A)
                 (A) (A) (A) (A) (A) (A) (A) (A) (A) (A) (A) (A)
                 (A) (A) (A) (A) (A) (A) (A) (A)
       Virtual   (A) (A) (A) (A) (A) (A) (A) (A) (A) (A) (A) (A)
                 (A) (A) (A) (A) (A) (A) (A) (A) (A) (A) (A) (A)
                 (A) (A) (A) (A) (A) (A) (A) (A) (A) (A) (A) (A)
                 (A) (A) (A) (A) (A) (A) (A) (A) (A) (A) (A) (A)
                 (A) (A) (A) (A) (A) (A) (A) (A) (A) (A) (A) (A)
                 (A) (A) (A) (A) (A) (A) (A) (A) (A) (A) (A) (A)
                 (A) (A) (A) (A) (A) (A) (A) (A) (A) (A) (A) (A)
                 (A) (A) (A) (A) (A) (A) (A) (A) (A) (A) (A) (A)
                 (A) (A) (A)
 The electronic state of the initial guess is 1-A.
 Requested convergence on RMS density matrix=1.00D-08 within 128 cycles.
 Requested convergence on MAX density matrix=1.00D-06.
 Requested convergence on             energy=1.00D-06.
 No special actions if energy rises.
 Integral accuracy reduced to 1.0D-05 until final iterations.
 Initial convergence to 1.0D-05 achieved.  Increase integral accuracy.
 SCF Done:  E(RHF) =  -426.988483087     A.U. after   11 cycles
             Convg  =    0.9314D-08             -V/T =  2.0006

 **********************************************************************

            Population analysis using the SCF density.

 **********************************************************************

 Orbital symmetries:
       Occupied  (A) (A) (A) (A) (A) (A) (A) (A) (A) (A) (A) (A)
                 (A) (A) (A) (A) (A) (A) (A) (A) (A) (A) (A) (A)
                 (A) (A) (A) (A) (A) (A) (A) (A) (A) (A) (A) (A)
                 (A) (A) (A) (A) (A) (A) (A) (A)
       Virtual   (A) (A) (A) (A) (A) (A) (A) (A) (A) (A) (A) (A)
                 (A) (A) (A) (A) (A) (A) (A) (A) (A) (A) (A) (A)
                 (A) (A) (A) (A) (A) (A) (A) (A) (A) (A) (A) (A)
                 (A) (A) (A) (A) (A) (A) (A) (A) (A) (A) (A) (A)
                 (A) (A) (A) (A) (A) (A) (A) (A) (A) (A) (A) (A)
                 (A) (A) (A) (A) (A) (A) (A) (A) (A) (A) (A) (A)
                 (A) (A) (A) (A) (A) (A) (A) (A) (A) (A) (A) (A)
                 (A) (A) (A) (A) (A) (A) (A) (A) (A) (A) (A) (A)
                 (A) (A) (A)
 The electronic state is 1-A.
 Alpha  occ. eigenvalues --  -11.16701 -11.16166 -11.15824 -11.15715 -11.15663
 Alpha  occ. eigenvalues --  -11.15458 -11.15409 -11.13966 -11.13801 -11.13767
 Alpha  occ. eigenvalues --  -11.13662  -1.14666  -1.09703  -1.01673  -1.00549
 Alpha  occ. eigenvalues --   -0.93688  -0.93518  -0.91662  -0.82601  -0.81166
 Alpha  occ. eigenvalues --   -0.74887  -0.71749  -0.64921  -0.63079  -0.61286
 Alpha  occ. eigenvalues --   -0.59946  -0.59564  -0.58873  -0.57465  -0.56469
 Alpha  occ. eigenvalues --   -0.53844  -0.53557  -0.52536  -0.51722  -0.51110
 Alpha  occ. eigenvalues --   -0.48703  -0.47429  -0.46865  -0.45715  -0.44494
 Alpha  occ. eigenvalues --   -0.44318  -0.42448  -0.40222  -0.39773
 Alpha virt. eigenvalues --    0.24842   0.25649   0.26427   0.29402   0.30961
 Alpha virt. eigenvalues --    0.31168   0.31732   0.31811   0.32582   0.33998
 Alpha virt. eigenvalues --    0.34157   0.34350   0.36035   0.36336   0.36883
 Alpha virt. eigenvalues --    0.37185   0.38119   0.39480   0.40507   0.40703
 Alpha virt. eigenvalues --    0.41522   0.42712   0.44449   0.45553   0.45981
 Alpha virt. eigenvalues --    0.47218   0.48177   0.49244   0.49571   0.51487
 Alpha virt. eigenvalues --    0.53097   0.53822   0.56167   0.88807   0.89614
 Alpha virt. eigenvalues --    0.90942   0.91197   0.91883   0.94089   0.97021
 Alpha virt. eigenvalues --    0.97891   0.99461   1.00577   1.03340   1.05214
 Alpha virt. eigenvalues --    1.06834   1.07608   1.10865   1.11472   1.12944
 Alpha virt. eigenvalues --    1.13646   1.15300   1.15794   1.18217   1.20849
 Alpha virt. eigenvalues --    1.23791   1.24397   1.26519   1.27100   1.29086
 Alpha virt. eigenvalues --    1.29937   1.36200   1.36450   1.36978   1.37339
 Alpha virt. eigenvalues --    1.38252   1.39765   1.40002   1.40869   1.41025
 Alpha virt. eigenvalues --    1.41797   1.42157   1.43206   1.43992   1.44187
 Alpha virt. eigenvalues --    1.45194   1.45547   1.48498   1.50108   1.50242
 Alpha virt. eigenvalues --    1.53271   1.54479   1.56674   1.57353   1.68636
 Alpha virt. eigenvalues --    1.75363   1.77799   1.79833   1.90124   2.02316
 Alpha virt. eigenvalues --    2.22397   2.27113   2.31342   2.32678   2.33344
 Alpha virt. eigenvalues --    2.64431   2.81417   2.84464   2.93992
          Condensed to atoms (all electrons):
              1          2          3          4          5          6
     1  C    5.715835   0.235905  -0.089233   0.001566  -0.089393   0.234904
     2  C    0.235905   5.528852   0.242147  -0.091771   0.006250  -0.095043
     3  C   -0.089233   0.242147   5.492934   0.231180  -0.095016   0.006262
     4  C    0.001566  -0.091771   0.231180   5.672863   0.230863  -0.091185
     5  C   -0.089393   0.006250  -0.095016   0.230863   5.493390   0.241809
     6  C    0.234904  -0.095043   0.006262  -0.091185   0.241809   5.529473
     7  H    0.003945  -0.043106   0.395129  -0.044966   0.003797  -0.000301
     8  H   -0.050573   0.386923  -0.047117  -0.001359   0.000387  -0.000158
     9  H   -0.044147   0.395862  -0.041150   0.003777  -0.000260   0.003520
    10  H    0.403613  -0.043825  -0.001004   0.000290  -0.000986  -0.043863
    11  H    0.000237  -0.000685  -0.046089   0.397826  -0.046104  -0.000664
    12  H    0.003959  -0.000302   0.003802  -0.045044   0.395159  -0.043180
    13  H   -0.001744   0.000443  -0.000696  -0.051443   0.387173  -0.047763
    14  H   -0.050365  -0.000208   0.000385  -0.001335  -0.046912   0.387124
    15  H   -0.044170   0.003525  -0.000261   0.003766  -0.041242   0.396161
    16  H   -0.001748  -0.047666   0.387085  -0.051342  -0.000684   0.000444
    17  C    0.248825  -0.085719   0.004645  -0.000264   0.004652  -0.086159
    18  C   -0.083780  -0.006320  -0.000050  -0.000001  -0.000080   0.004394
    19  H    0.000603  -0.000519   0.000035  -0.000001   0.000001  -0.000112
    20  H    0.004056   0.000205   0.000000   0.000000   0.000001  -0.000072
    21  H   -0.003104  -0.000807  -0.000041   0.000000  -0.000007   0.000081
    22  C   -0.090385  -0.008449   0.000122   0.000019   0.000093  -0.007871
    23  H   -0.001688   0.000369  -0.000025  -0.000006   0.000115  -0.002019
    24  H    0.004045   0.000117   0.000000   0.000000   0.000000   0.000117
    25  H   -0.001881  -0.002138   0.000126  -0.000007  -0.000025   0.000337
    26  C   -0.085887   0.004303  -0.000081  -0.000002  -0.000008  -0.006283
    27  H   -0.002482   0.000039  -0.000005   0.000000  -0.000040  -0.000416
    28  H    0.004144  -0.000072   0.000001   0.000000   0.000000   0.000186
    29  H   -0.000125  -0.000101   0.000001  -0.000001   0.000054  -0.000864
    30  C   -0.000169   0.004473  -0.087961   0.272258  -0.088097   0.004459
    31  H    0.000005  -0.000101   0.004323  -0.046752  -0.001175  -0.000032
    32  H    0.000005  -0.000031  -0.001174  -0.046734   0.004325  -0.000101
    33  H    0.000005  -0.000053  -0.001454  -0.049632  -0.001450  -0.000052
              7          8          9         10         11         12
     1  C    0.003945  -0.050573  -0.044147   0.403613   0.000237   0.003959
     2  C   -0.043106   0.386923   0.395862  -0.043825  -0.000685  -0.000302
     3  C    0.395129  -0.047117  -0.041150  -0.001004  -0.046089   0.003802
     4  C   -0.044966  -0.001359   0.003777   0.000290   0.397826  -0.045044
     5  C    0.003797   0.000387  -0.000260  -0.000986  -0.046104   0.395159
     6  C   -0.000301  -0.000158   0.003520  -0.043863  -0.000664  -0.043180
     7  H    0.519441  -0.002137  -0.001789  -0.000024  -0.002204  -0.000055
     8  H   -0.002137   0.532621  -0.022656   0.003040   0.002398  -0.000016
     9  H   -0.001789  -0.022656   0.508735  -0.001971  -0.000037   0.000004
    10  H   -0.000024   0.003040  -0.001971   0.522048   0.000034  -0.000025
    11  H   -0.002204   0.002398  -0.000037   0.000034   0.531526  -0.002210
    12  H   -0.000055  -0.000016   0.000004  -0.000025  -0.002210   0.519698
    13  H   -0.000050   0.000035  -0.000018   0.002320   0.003280  -0.022843
    14  H   -0.000016   0.001875  -0.000044   0.003027   0.002374  -0.002160
    15  H    0.000004  -0.000044  -0.000051  -0.001960  -0.000037  -0.001773
    16  H   -0.022839   0.003301  -0.002275   0.002323   0.003274  -0.000050
    17  C   -0.000080  -0.002646  -0.003286  -0.045282  -0.000032  -0.000080
    18  C    0.000001   0.000036  -0.001238  -0.002325   0.000000   0.000000
    19  H    0.000000   0.000108  -0.001171   0.000074   0.000000   0.000000
    20  H    0.000000  -0.000027   0.000158  -0.000050   0.000000   0.000000
    21  H    0.000001   0.000072   0.000497   0.002974   0.000000   0.000000
    22  C    0.000005  -0.003693   0.000736   0.003427  -0.000009   0.000005
    23  H    0.000000  -0.000062  -0.000006  -0.000070  -0.000007   0.000001
    24  H    0.000000   0.000194  -0.000027  -0.000033   0.000000   0.000000
    25  H    0.000001  -0.000174   0.000089  -0.000066  -0.000008   0.000000
    26  C    0.000000  -0.000017  -0.000020  -0.002188   0.000000   0.000001
    27  H    0.000000   0.000001   0.000000   0.003028   0.000000   0.000001
    28  H    0.000000   0.000000  -0.000001  -0.000049   0.000000   0.000000
    29  H    0.000000   0.000002  -0.000001   0.000078   0.000000   0.000000
    30  C   -0.001844  -0.000062  -0.000066  -0.000037  -0.041545  -0.001862
    31  H   -0.000029   0.000001   0.000001   0.000001  -0.001694   0.002366
    32  H    0.002355   0.000001  -0.000001   0.000001  -0.001697  -0.000029
    33  H    0.000046   0.000001   0.000001  -0.000003   0.003276   0.000046
             13         14         15         16         17         18
     1  C   -0.001744  -0.050365  -0.044170  -0.001748   0.248825  -0.083780
     2  C    0.000443  -0.000208   0.003525  -0.047666  -0.085719  -0.006320
     3  C   -0.000696   0.000385  -0.000261   0.387085   0.004645  -0.000050
     4  C   -0.051443  -0.001335   0.003766  -0.051342  -0.000264  -0.000001
     5  C    0.387173  -0.046912  -0.041242  -0.000684   0.004652  -0.000080
     6  C   -0.047763   0.387124   0.396161   0.000444  -0.086159   0.004394
     7  H   -0.000050  -0.000016   0.000004  -0.022839  -0.000080   0.000001
     8  H    0.000035   0.001875  -0.000044   0.003301  -0.002646   0.000036
     9  H   -0.000018  -0.000044  -0.000051  -0.002275  -0.003286  -0.001238
    10  H    0.002320   0.003027  -0.001960   0.002323  -0.045282  -0.002325
    11  H    0.003280   0.002374  -0.000037   0.003274  -0.000032   0.000000
    12  H   -0.022843  -0.002160  -0.001773  -0.000050  -0.000080   0.000000
    13  H    0.538927   0.003296  -0.002299   0.002427  -0.000066   0.000000
    14  H    0.003296   0.531940  -0.022738   0.000034  -0.002712  -0.000019
    15  H   -0.002299  -0.022738   0.509349  -0.000018  -0.003221  -0.000021
    16  H    0.002427   0.000034  -0.000018   0.538793  -0.000067   0.000002
    17  C   -0.000066  -0.002712  -0.003221  -0.000067   5.807883   0.263488
    18  C    0.000000  -0.000019  -0.000021   0.000002   0.263488   5.378789
    19  H    0.000000   0.000003  -0.000001   0.000000  -0.046767   0.384950
    20  H    0.000000   0.000000  -0.000001   0.000000  -0.047081   0.383423
    21  H    0.000000   0.000001   0.000000   0.000000  -0.049750   0.382835
    22  C   -0.000006  -0.003484   0.000683  -0.000006   0.264552  -0.084060
    23  H   -0.000003  -0.000244   0.000062   0.000000  -0.046872   0.003861
    24  H    0.000000   0.000197  -0.000026   0.000000  -0.046147  -0.001516
    25  H    0.000000  -0.000087  -0.000004  -0.000004  -0.046778  -0.000844
    26  C    0.000002   0.000072  -0.001708   0.000000   0.271457  -0.084014
    27  H    0.000000   0.000054   0.000378   0.000000  -0.049618   0.000907
    28  H    0.000000  -0.000029   0.000153   0.000000  -0.047000  -0.004036
    29  H    0.000000   0.000123  -0.001190   0.000000  -0.046434   0.003840
    30  C   -0.002005  -0.000062  -0.000066  -0.001990   0.000003   0.000000
    31  H    0.000022   0.000001  -0.000001   0.000001   0.000000   0.000000
    32  H    0.000002   0.000001   0.000001   0.000022   0.000000   0.000000
    33  H    0.002950   0.000001   0.000001   0.002942   0.000000   0.000000
             19         20         21         22         23         24
     1  C    0.000603   0.004056  -0.003104  -0.090385  -0.001688   0.004045
     2  C   -0.000519   0.000205  -0.000807  -0.008449   0.000369   0.000117
     3  C    0.000035   0.000000  -0.000041   0.000122  -0.000025   0.000000
     4  C   -0.000001   0.000000   0.000000   0.000019  -0.000006   0.000000
     5  C    0.000001   0.000001  -0.000007   0.000093   0.000115   0.000000
     6  C   -0.000112  -0.000072   0.000081  -0.007871  -0.002019   0.000117
     7  H    0.000000   0.000000   0.000001   0.000005   0.000000   0.000000
     8  H    0.000108  -0.000027   0.000072  -0.003693  -0.000062   0.000194
     9  H   -0.001171   0.000158   0.000497   0.000736  -0.000006  -0.000027
    10  H    0.000074  -0.000050   0.002974   0.003427  -0.000070  -0.000033
    11  H    0.000000   0.000000   0.000000  -0.000009  -0.000007   0.000000
    12  H    0.000000   0.000000   0.000000   0.000005   0.000001   0.000000
    13  H    0.000000   0.000000   0.000000  -0.000006  -0.000003   0.000000
    14  H    0.000003   0.000000   0.000001  -0.003484  -0.000244   0.000197
    15  H   -0.000001  -0.000001   0.000000   0.000683   0.000062  -0.000026
    16  H    0.000000   0.000000   0.000000  -0.000006   0.000000   0.000000
    17  C   -0.046767  -0.047081  -0.049750   0.264552  -0.046872  -0.046147
    18  C    0.384950   0.383423   0.382835  -0.084060   0.003861  -0.001516
    19  H    0.511347  -0.024986  -0.026018  -0.004153   0.000093   0.000030
    20  H   -0.024986   0.510708  -0.024895   0.000811  -0.000094   0.001031
    21  H   -0.026018  -0.024895   0.513931   0.004031  -0.000078  -0.000021
    22  C   -0.004153   0.000811   0.004031   5.406668   0.381487   0.383821
    23  H    0.000093  -0.000094  -0.000078   0.381487   0.513552  -0.025185
    24  H    0.000030   0.001031  -0.000021   0.383821  -0.025185   0.507508
    25  H    0.001841   0.000001  -0.000058   0.381504  -0.025235  -0.025132
    26  C    0.003768  -0.004625   0.001413  -0.085548  -0.000947  -0.001188
    27  H   -0.000071   0.000049   0.000672   0.004067  -0.000054  -0.000034
    28  H    0.000049   0.003023   0.000040   0.000317   0.000007   0.001278
    29  H   -0.000079   0.000085  -0.000084  -0.003326   0.001901   0.000030
    30  C    0.000000   0.000000   0.000000   0.000000   0.000000   0.000000
    31  H    0.000000   0.000000   0.000000   0.000000   0.000000   0.000000
    32  H    0.000000   0.000000   0.000000   0.000000   0.000000   0.000000
    33  H    0.000000   0.000000   0.000000   0.000000   0.000000   0.000000
             25         26         27         28         29         30
     1  C   -0.001881  -0.085887  -0.002482   0.004144  -0.000125  -0.000169
     2  C   -0.002138   0.004303   0.000039  -0.000072  -0.000101   0.004473
     3  C    0.000126  -0.000081  -0.000005   0.000001   0.000001  -0.087961
     4  C   -0.000007  -0.000002   0.000000   0.000000  -0.000001   0.272258
     5  C   -0.000025  -0.000008  -0.000040   0.000000   0.000054  -0.088097
     6  C    0.000337  -0.006283  -0.000416   0.000186  -0.000864   0.004459
     7  H    0.000001   0.000000   0.000000   0.000000   0.000000  -0.001844
     8  H   -0.000174  -0.000017   0.000001   0.000000   0.000002  -0.000062
     9  H    0.000089  -0.000020   0.000000  -0.000001  -0.000001  -0.000066
    10  H   -0.000066  -0.002188   0.003028  -0.000049   0.000078  -0.000037
    11  H   -0.000008   0.000000   0.000000   0.000000   0.000000  -0.041545
    12  H    0.000000   0.000001   0.000001   0.000000   0.000000  -0.001862
    13  H    0.000000   0.000002   0.000000   0.000000   0.000000  -0.002005
    14  H   -0.000087   0.000072   0.000054  -0.000029   0.000123  -0.000062
    15  H   -0.000004  -0.001708   0.000378   0.000153  -0.001190  -0.000066
    16  H   -0.000004   0.000000   0.000000   0.000000   0.000000  -0.001990
    17  C   -0.046778   0.271457  -0.049618  -0.047000  -0.046434   0.000003
    18  C   -0.000844  -0.084014   0.000907  -0.004036   0.003840   0.000000
    19  H    0.001841   0.003768  -0.000071   0.000049  -0.000079   0.000000
    20  H    0.000001  -0.004625   0.000049   0.003023   0.000085   0.000000
    21  H   -0.000058   0.001413   0.000672   0.000040  -0.000084   0.000000
    22  C    0.381504  -0.085548   0.004067   0.000317  -0.003326   0.000000
    23  H   -0.025235  -0.000947  -0.000054   0.000007   0.001901   0.000000
    24  H   -0.025132  -0.001188  -0.000034   0.001278   0.000030   0.000000
    25  H    0.512824   0.003793  -0.000077  -0.000084   0.000052   0.000000
    26  C    0.003793   5.371785   0.382499   0.382782   0.384131   0.000000
    27  H   -0.000077   0.382499   0.514489  -0.024878  -0.025904   0.000000
    28  H   -0.000084   0.382782  -0.024878   0.512192  -0.025041   0.000000
    29  H    0.000052   0.384131  -0.025904  -0.025041   0.512279   0.000000
    30  C    0.000000   0.000000   0.000000   0.000000   0.000000   5.351805
    31  H    0.000000   0.000000   0.000000   0.000000   0.000000   0.382415
    32  H    0.000000   0.000000   0.000000   0.000000   0.000000   0.382431
    33  H    0.000000   0.000000   0.000000   0.000000   0.000000   0.377903
             31         32         33
     1  C    0.000005   0.000005   0.000005
     2  C   -0.000101  -0.000031  -0.000053
     3  C    0.004323  -0.001174  -0.001454
     4  C   -0.046752  -0.046734  -0.049632
     5  C   -0.001175   0.004325  -0.001450
     6  C   -0.000032  -0.000101  -0.000052
     7  H   -0.000029   0.002355   0.000046
     8  H    0.000001   0.000001   0.000001
     9  H    0.000001  -0.000001   0.000001
    10  H    0.000001   0.000001  -0.000003
    11  H   -0.001694  -0.001697   0.003276
    12  H    0.002366  -0.000029   0.000046
    13  H    0.000022   0.000002   0.002950
    14  H    0.000001   0.000001   0.000001
    15  H   -0.000001   0.000001   0.000001
    16  H    0.000001   0.000022   0.002942
    17  C    0.000000   0.000000   0.000000
    18  C    0.000000   0.000000   0.000000
    19  H    0.000000   0.000000   0.000000
    20  H    0.000000   0.000000   0.000000
    21  H    0.000000   0.000000   0.000000
    22  C    0.000000   0.000000   0.000000
    23  H    0.000000   0.000000   0.000000
    24  H    0.000000   0.000000   0.000000
    25  H    0.000000   0.000000   0.000000
    26  C    0.000000   0.000000   0.000000
    27  H    0.000000   0.000000   0.000000
    28  H    0.000000   0.000000   0.000000
    29  H    0.000000   0.000000   0.000000
    30  C    0.382415   0.382431   0.377903
    31  H    0.513118  -0.024971  -0.025578
    32  H   -0.024971   0.513098  -0.025578
    33  H   -0.025578  -0.025578   0.519487
 Mulliken atomic charges:
              1
     1  C   -0.220780
     2  C   -0.382494
     3  C   -0.356820
     4  C   -0.292563
     5  C   -0.356592
     6  C   -0.383135
     7  H    0.194714
     8  H    0.199744
     9  H    0.206836
    10  H    0.197484
    11  H    0.198796
    12  H    0.194586
    13  H    0.188058
    14  H    0.199906
    15  H    0.206750
    16  H    0.188040
    17  C   -0.209444
    18  C   -0.538220
    19  H    0.200973
    20  H    0.198281
    21  H    0.198314
    22  C   -0.541360
    23  H    0.201146
    24  H    0.200941
    25  H    0.202033
    26  C   -0.533490
    27  H    0.197393
    28  H    0.197018
    29  H    0.200572
    30  C   -0.549982
    31  H    0.198079
    32  H    0.198073
    33  H    0.197140
 Sum of Mulliken atomic charges =   0.00000
 Mulliken charges with hydrogens summed into heavy atoms:
              1
     1  C   -0.023296
     2  C    0.024086
     3  C    0.025935
     4  C   -0.093767
     5  C    0.026052
     6  C    0.023521
    17  C   -0.209444
    18  C    0.059348
    22  C    0.062761
    26  C    0.061493
    30  C    0.043311
 Sum of Mulliken charges with hydrogens summed into heavy atoms =   0.00000
 Electronic spatial extent (au):  <R**2>=           2234.2722
 Charge=              0.0000 electrons
 Dipole moment (field-independent basis, Debye):
    X=             -0.0554    Y=             -0.0006    Z=              0.0598  Tot=              0.0815
 Quadrupole moment (field-independent basis, Debye-Ang):
   XX=            -76.5512   YY=            -75.2297   ZZ=            -74.4611
   XY=             -0.0038   XZ=              0.3040   YZ=             -0.0099
 Traceless Quadrupole moment (field-independent basis, Debye-Ang):
   XX=             -1.1372   YY=              0.1843   ZZ=              0.9529
   XY=             -0.0038   XZ=              0.3040   YZ=             -0.0099
 Octapole moment (field-independent basis, Debye-Ang**2):
  XXX=             -8.4451  YYY=              0.0724  ZZZ=             -2.6132  XYY=              1.7447
  XXY=             -0.0169  XXZ=              2.0109  XZZ=              2.0709  YZZ=             -0.0806
  YYZ=              2.3207  XYZ=              0.0835
 Hexadecapole moment (field-independent basis, Debye-Ang**3):
 XXXX=          -2263.9783 YYYY=           -575.3828 ZZZZ=           -312.0539 XXXY=             -0.1762
 XXXZ=              3.3692 YYYX=              0.0509 YYYZ=              0.0076 ZZZX=              1.3517
 ZZZY=             -0.0771 XXYY=           -475.8373 XXZZ=           -431.3625 YYZZ=           -147.9607
 XXYZ=             -0.2714 YYXZ=              2.1266 ZZXY=              0.0776
 N-N= 6.967347802237D+02 E-N=-2.385658462900D+03  KE= 4.267385817319D+02
 1\1\GINC-NODE02\SP\RHF\3-21G\C11H22\SC4102.04\26-Jun-2022\0\\# hf/3-21
 g geom=connectivity\\mol_6\\0,1\C,0,7.5199662,1.92488879,-2.68392637\C
 ,0,9.0350722,1.92488879,-2.68392637\C,0,9.5870032,3.33596679,-2.683926
 37\C,0,9.0373402,4.14050379,-1.52326537\C,0,7.5222152,4.14116479,-1.52
 375437\C,0,6.9694152,2.73054379,-1.52505037\H,0,10.7056022,3.30197579,
 -2.62121237\H,0,9.4076212,1.37925479,-1.77736437\H,0,9.4103662,1.37502
 979,-3.58583637\H,0,7.1472782,2.35791779,-3.64931137\H,0,9.4098752,3.7
 0565879,-0.55865437\H,0,7.1468952,4.69059279,-0.62164037\H,0,7.1503602
 ,4.68776579,-2.43007737\H,0,7.2354192,2.22482179,-0.55973537\H,0,5.850
 8672,2.76560479,-1.58998837\H,0,9.3183852,3.84159979,-3.64847237\C,0,7
 .00394908,0.47653972,-2.59668361\C,0,7.54027805,-0.33238133,-3.7923415
 7\H,0,8.53423333,-0.66666167,-3.57971619\H,0,6.90813437,-1.17871018,-3
 .9626996\H,0,7.55111044,0.28618557,-4.66535798\C,0,7.49130843,-0.16382
 261,-1.28366535\H,0,7.10293939,0.38695499,-0.45257357\H,0,7.14883424,-
 1.17621536,-1.23197072\H,0,8.56077135,-0.14713432,-1.25416023\C,0,5.46
 424389,0.47747463,-2.62680113\H,0,5.12276592,1.14982942,-3.38590048\H,
 0,5.11107415,-0.50986799,-2.83969942\H,0,5.08909689,0.79311204,-1.6757
 2923\C,0,9.55395161,5.58876415,-1.60843921\H,0,9.18119297,6.14988185,-
 0.77711622\H,0,10.623738,5.58767381,-1.58708767\H,0,9.21586798,6.03499
 519,-2.520293\\Version=EM64L-G09RevC.01\State=1-A\HF=-426.9884831\RMSD
 =9.314e-09\Dipole=-0.0012127,-0.0274939,0.0164716\Quadrupole=0.0914968
 ,-0.6916638,0.6001669,-0.419121,0.2020555,-0.1700381\PG=C01 [X(C11H22)
 ]\\@


 THERE IS MORE TO LIFE THAN INCREASING ITS SPEED.

                                       -- GANDHI
 Job cpu time:  0 days  0 hours  0 minutes 13.5 seconds.
 File lengths (MBytes):  RWF=     15 Int=      0 D2E=      0 Chk=      3 Scr=      1
 Normal termination of Gaussian 09 at Sun Jun 26 00:39:12 2022.
