 Entering Gaussian System, Link 0=g09
 Input=/home/iiit/sc4102.04/Tut_assignment_5/Problem_1/Mol_3/mol_3.com
 Output=/home/iiit/sc4102.04/Tut_assignment_5/Problem_1/Mol_3/mol_3.log
 Initial command:
 /global/g09-revC/l1.exe /scratch/Gau-18372.inp -scrdir=/scratch/
 Entering Link 1 = /global/g09-revC/l1.exe PID=     18374.
  
 Copyright (c) 1988,1990,1992,1993,1995,1998,2003,2009,2011,
            Gaussian, Inc.  All Rights Reserved.
  
 This is part of the Gaussian(R) 09 program.  It is based on
 the Gaussian(R) 03 system (copyright 2003, Gaussian, Inc.),
 the Gaussian(R) 98 system (copyright 1998, Gaussian, Inc.),
 the Gaussian(R) 94 system (copyright 1995, Gaussian, Inc.),
 the Gaussian 92(TM) system (copyright 1992, Gaussian, Inc.),
 the Gaussian 90(TM) system (copyright 1990, Gaussian, Inc.),
 the Gaussian 88(TM) system (copyright 1988, Gaussian, Inc.),
 the Gaussian 86(TM) system (copyright 1986, Carnegie Mellon
 University), and the Gaussian 82(TM) system (copyright 1983,
 Carnegie Mellon University). Gaussian is a federally registered
 trademark of Gaussian, Inc.
  
 This software contains proprietary and confidential information,
 including trade secrets, belonging to Gaussian, Inc.
  
 This software is provided under written license and may be
 used, copied, transmitted, or stored only in accord with that
 written license.
  
 The following legend is applicable only to US Government
 contracts under FAR:
  
                    RESTRICTED RIGHTS LEGEND
  
 Use, reproduction and disclosure by the US Government is
 subject to restrictions as set forth in subparagraphs (a)
 and (c) of the Commercial Computer Software - Restricted
 Rights clause in FAR 52.227-19.
  
 Gaussian, Inc.
 340 Quinnipiac St., Bldg. 40, Wallingford CT 06492
  
  
 ---------------------------------------------------------------
 Warning -- This program may not be used in any manner that
 competes with the business of Gaussian, Inc. or will provide
 assistance to any competitor of Gaussian, Inc.  The licensee
 of this program is prohibited from giving any competitor of
 Gaussian, Inc. access to this program.  By using this program,
 the user acknowledges that Gaussian, Inc. is engaged in the
 business of creating and licensing software in the field of
 computational chemistry and represents and warrants to the
 licensee that it is not a competitor of Gaussian, Inc. and that
 it will not use this program in any manner prohibited above.
 ---------------------------------------------------------------
  

 Cite this work as:
 Gaussian 09, Revision C.01,
 M. J. Frisch, G. W. Trucks, H. B. Schlegel, G. E. Scuseria, 
 M. A. Robb, J. R. Cheeseman, G. Scalmani, V. Barone, B. Mennucci, 
 G. A. Petersson, H. Nakatsuji, M. Caricato, X. Li, H. P. Hratchian, 
 A. F. Izmaylov, J. Bloino, G. Zheng, J. L. Sonnenberg, M. Hada, 
 M. Ehara, K. Toyota, R. Fukuda, J. Hasegawa, M. Ishida, T. Nakajima, 
 Y. Honda, O. Kitao, H. Nakai, T. Vreven, J. A. Montgomery, Jr., 
 J. E. Peralta, F. Ogliaro, M. Bearpark, J. J. Heyd, E. Brothers, 
 K. N. Kudin, V. N. Staroverov, T. Keith, R. Kobayashi, J. Normand, 
 K. Raghavachari, A. Rendell, J. C. Burant, S. S. Iyengar, J. Tomasi, 
 M. Cossi, N. Rega, J. M. Millam, M. Klene, J. E. Knox, J. B. Cross, 
 V. Bakken, C. Adamo, J. Jaramillo, R. Gomperts, R. E. Stratmann, 
 O. Yazyev, A. J. Austin, R. Cammi, C. Pomelli, J. W. Ochterski, 
 R. L. Martin, K. Morokuma, V. G. Zakrzewski, G. A. Voth, 
 P. Salvador, J. J. Dannenberg, S. Dapprich, A. D. Daniels, 
 O. Farkas, J. B. Foresman, J. V. Ortiz, J. Cioslowski, 
 and D. J. Fox, Gaussian, Inc., Wallingford CT, 2010.
 
 ******************************************
 Gaussian 09:  EM64L-G09RevC.01 23-Sep-2011
                26-Jun-2022 
 ******************************************
 %chk=mol_3.chk
 ----------------------------
 # hf/3-21g geom=connectivity
 ----------------------------
 1/38=1,57=2/1;
 2/12=2,17=6,18=5,40=1/2;
 3/5=5,11=9,16=1,25=1,30=1/1,2,3;
 4//1;
 5/5=2,38=5/2;
 6/7=2,8=2,9=2,10=2,28=1/1;
 99/5=1,9=1/99;
 -----
 mol_3
 -----
 Charge =  0 Multiplicity = 1
 Symbolic Z-Matrix:
 C                     1.03375   2.03239  -1.06227 
 C                     2.54854   2.03239  -1.06227 
 C                     3.1554    3.4182   -1.06227 
 C                     0.44849   2.40064   0.28527 
 C                     2.69143   4.28453   0.09049 
 C                     0.20842   3.88298   0.4773 
 C                     1.27633   4.79256  -0.09192 
 H                     0.65386   2.73423  -1.84978 
 H                     2.91605   3.92924  -2.03261 
 H                     2.77265   3.71318   1.05174 
 H                     1.12635   2.02645   1.09866 
 H                     0.10751   4.08019   1.57861 
 H                     0.6818    1.00194  -1.33778 
 H                     4.27275   3.31606  -1.01013 
 H                    -0.53291   1.86911   0.41394 
 H                     3.38284   5.16631   0.16859 
 H                     1.07936   4.9566   -1.1853 
 C                     3.04336   1.2848   -2.31441 
 H                     4.1132    1.28813  -2.33228 
 H                     2.69019   0.27506  -2.28976 
 H                     2.67048   1.77177  -3.19117 
 C                     3.05994   1.25125   0.16243 
 H                     2.50915   0.339     0.25906 
 H                     4.09882   1.02888   0.03529 
 H                     2.92715   1.84312   1.04388 
 C                     1.14686   6.16683   0.59088 
 H                     1.80826   6.86319   0.11916 
 H                     0.13923   6.51569   0.5021 
 H                     1.40312   6.07645   1.6258 
 C                    -1.13681   4.26235  -0.16924 
 H                    -1.7994    3.42297  -0.1327 
 H                    -1.57025   5.08238   0.36421 
 H                    -0.97547   4.54528  -1.18847 
 
                          Input orientation:                          
 ---------------------------------------------------------------------
 Center     Atomic      Atomic             Coordinates (Angstroms)
 Number     Number       Type             X           Y           Z
 ---------------------------------------------------------------------
      1          6           0        1.033753    2.032393   -1.062265
      2          6           0        2.548540    2.032393   -1.062265
      3          6           0        3.155401    3.418195   -1.062265
      4          6           0        0.448491    2.400643    0.285275
      5          6           0        2.691432    4.284531    0.090490
      6          6           0        0.208422    3.882976    0.477303
      7          6           0        1.276330    4.792559   -0.091918
      8          1           0        0.653861    2.734233   -1.849781
      9          1           0        2.916050    3.929243   -2.032607
     10          1           0        2.772653    3.713181    1.051743
     11          1           0        1.126349    2.026454    1.098659
     12          1           0        0.107513    4.080191    1.578609
     13          1           0        0.681804    1.001940   -1.337784
     14          1           0        4.272749    3.316056   -1.010127
     15          1           0       -0.532912    1.869111    0.413942
     16          1           0        3.382843    5.166308    0.168590
     17          1           0        1.079360    4.956604   -1.185301
     18          6           0        3.043357    1.284799   -2.314407
     19          1           0        4.113203    1.288130   -2.332279
     20          1           0        2.690194    0.275062   -2.289765
     21          1           0        2.670476    1.771773   -3.191172
     22          6           0        3.059935    1.251248    0.162434
     23          1           0        2.509152    0.338998    0.259057
     24          1           0        4.098823    1.028883    0.035288
     25          1           0        2.927151    1.843122    1.043884
     26          6           0        1.146858    6.166830    0.590883
     27          1           0        1.808265    6.863192    0.119163
     28          1           0        0.139231    6.515692    0.502096
     29          1           0        1.403121    6.076455    1.625804
     30          6           0       -1.136812    4.262349   -0.169243
     31          1           0       -1.799395    3.422975   -0.132699
     32          1           0       -1.570248    5.082383    0.364215
     33          1           0       -0.975469    4.545278   -1.188468
 ---------------------------------------------------------------------
                    Distance matrix (angstroms):
                    1          2          3          4          5
     1  C    0.000000
     2  C    1.514787   0.000000
     3  C    2.534134   1.512854   0.000000
     4  C    1.514597   2.522237   3.190398   0.000000
     5  C    3.024710   2.534046   1.514810   2.935602   0.000000
     6  C    2.544818   3.357243   3.357227   1.513875   2.544840
     7  C    2.935802   3.190393   2.522173   2.559073   1.514556
     8  H    1.121195   2.168541   2.710293   2.170696   3.212440
     9  H    2.842999   2.162098   1.122507   3.714572   2.164307
    10  H    3.212141   2.710038   2.168535   2.777041   1.121180
    11  H    2.162915   2.586939   3.274689   1.122988   2.926568
    12  H    3.467797   4.138394   4.086817   2.147059   2.988794
    13  H    1.123215   2.149988   3.468844   2.155255   4.105359
    14  H    3.484480   2.150211   1.123217   4.140169   2.156355
    15  H    2.158770   3.420701   4.264094   1.123492   4.041691
    16  H    4.105442   3.468788   2.150031   4.033973   1.123245
    17  H    2.927154   3.274849   2.586849   3.015547   2.162892
    18  C    2.482995   1.540000   2.476245   3.838852   3.860799
    19  H    3.413191   2.148263   2.658476   4.638899   4.107269
    20  H    2.709015   2.148263   3.406238   4.021711   4.662773
    21  H    2.697968   2.148263   2.734611   4.173533   4.133243
    22  C    2.493088   1.540000   2.490915   2.855843   3.056432
    23  H    2.605817   2.148263   3.412475   2.915029   3.953337
    24  H    3.406803   2.148263   2.793471   3.907575   3.547259
    25  H    2.838423   2.148263   2.639852   2.651429   2.631540
    26  C    4.454128   4.668102   3.784460   3.842561   2.485789
    27  H    5.033117   5.027962   3.883111   4.668075   2.725858
    28  H    4.831911   5.324656   4.597716   4.132346   3.414854
    29  H    4.869968   4.989202   4.166839   4.027397   2.688480
    30  C    3.237521   4.399092   4.464659   2.487111   3.837109
    31  H    3.290067   4.658578   5.041242   2.504567   4.578168
    32  H    4.256537   5.319934   5.209234   3.357569   4.344354
    33  H    3.219859   4.330030   4.283729   2.966317   3.892285
                    6          7          8          9         10
     6  C    0.000000
     7  C    1.513863   0.000000
     8  H    2.633125   2.777455   0.000000
     9  H    3.692294   2.683332   2.564951   0.000000
    10  H    2.633266   2.170714   3.723770   3.095232   0.000000
    11  H    2.162255   3.015179   3.068794   4.077801   2.357449
    12  H    1.123366   2.159690   3.723434   4.577286   2.741397
    13  H    3.437877   4.034159   1.806588   3.747497   4.175203
    14  H    4.364928   3.464346   3.760304   1.806127   2.580563
    15  H    2.146915   3.475025   2.698390   4.703731   3.838508
    16  H    3.437905   2.155215   4.175662   2.567780   1.806618
    17  H    2.162282   1.123029   2.358287   2.268662   3.068828
    18  C    4.751950   4.512895   2.833095   2.662462   4.159481
    19  H    5.465738   5.034688   3.780352   2.915211   4.373734
    20  H    5.180048   5.218938   3.223005   3.670174   4.795115
    21  H    4.896590   4.546885   2.606223   2.461149   4.667101
    22  C    3.893104   3.973264   3.469502   3.465626   2.633347
    23  H    4.230931   4.634355   3.691403   4.278686   3.476046
    24  H    4.845250   4.706156   4.281293   3.753296   3.161861
    25  H    3.445796   3.565731   3.786189   3.717099   1.876447
    26  C    2.471751   1.540000   4.240590   3.875504   2.979260
    27  H    3.401390   2.148263   4.717806   3.803335   3.423788
    28  H    2.633742   2.148263   4.482812   4.563459   3.884725
    29  H    2.749129   2.148263   4.879706   4.503715   2.791098
    30  C    1.540000   2.471914   2.892379   4.473117   4.132349
    31  H    2.148263   3.367122   3.072654   5.108951   4.731886
    32  H    2.148263   2.897423   3.919470   5.215492   4.605236
    33  H    2.148263   2.516777   2.524269   4.029391   4.445149
                   11         12         13         14         15
    11  H    0.000000
    12  H    2.342267   0.000000
    13  H    2.680206   4.279111   0.000000
    14  H    4.001235   4.963330   4.284551   0.000000
    15  H    1.801872   2.579819   2.301318   5.216896   0.000000
    16  H    3.976868   3.727679   5.187170   2.367433   5.124924
    17  H    3.715435   3.058069   3.977520   3.594415   3.832703
    18  C    3.984218   5.620407   2.571135   2.708977   4.535969
    19  H    4.608444   6.255893   3.584051   2.426113   5.428227
    20  H    4.122426   6.009456   2.338429   3.659179   4.498826
    21  H    4.566381   5.886288   2.825333   3.115934   4.823693
    22  C    2.283904   4.327270   2.822821   2.666317   3.654253
    23  H    2.337645   4.637415   2.515670   3.685645   3.408723
    24  H    3.310817   5.255747   3.682672   2.520775   4.722534
    25  H    1.810939   3.638787   3.379573   2.863412   3.517036
    26  C    4.171447   2.531778   5.532822   4.523421   4.617718
    27  H    4.981813   3.573183   6.143768   4.464432   5.523482
    28  H    4.635034   2.662996   5.837894   5.441549   4.695771
    29  H    4.093530   2.380314   5.920629   4.775217   4.787335
    30  C    3.424719   2.153256   3.911920   5.555710   2.536215
    31  H    3.467923   2.645147   3.670148   6.136143   2.077808
    32  H    4.141225   2.300874   4.961709   6.256943   3.376930
    33  H    3.999133   3.007635   3.914600   5.393198   3.150467
                   16         17         18         19         20
    16  H    0.000000
    17  H    2.680118   0.000000
    18  C    4.620242   4.314431   0.000000
    19  H    4.672048   4.896679   1.070000   0.000000
    20  H    5.517930   5.072619   1.070000   1.747303   0.000000
    21  H    4.828906   4.086357   1.070000   1.747303   1.747303
    22  C    3.928358   4.412338   2.477124   2.708196   2.665131
    23  H    4.906572   5.045073   2.793319   3.191999   2.556043
    24  H    4.201034   5.102351   2.588545   2.381761   2.821054
    25  H    3.466607   4.251749   3.406368   3.621217   3.691635
    26  C    2.485760   2.150356   5.989294   6.414498   6.737428
    27  H    2.315417   2.422397   6.210168   6.511806   7.069950
    28  H    3.528892   2.482319   6.612781   7.152170   7.297078
    29  H    2.621286   3.043222   6.416822   6.777833   7.116487
    30  C    4.621532   2.534913   5.562495   6.409942   5.919548
    31  H    5.475909   3.427422   5.725722   6.659920   5.892258
    32  H    4.957663   3.072009   6.548436   7.346363   6.950202
    33  H    4.606753   2.095596   5.296171   6.149138   5.734517
                   21         22         23         24         25
    21  H    0.000000
    22  C    3.416035   0.000000
    23  H    3.739378   1.070000   0.000000
    24  H    3.605842   1.070000   1.747303   0.000000
    25  H    4.243426   1.070000   1.747303   1.747303   0.000000
    26  C    5.995154   5.292105   5.994129   5.951578   4.697776
    27  H    6.133863   5.749997   6.563226   6.268402   5.225718
    28  H    6.523204   6.029946   6.620207   6.782429   5.467992
    29  H    6.583292   5.307457   6.000810   5.939237   4.536784
    30  C    5.461727   5.175850   5.373005   6.157029   4.882636
    31  H    5.662197   5.330721   5.313000   6.367799   5.120598
    32  H    6.448616   6.013061   6.257177   6.976921   5.584027
    33  H    4.999607   5.381455   5.650726   6.293731   5.245521
                   26         27         28         29         30
    26  C    0.000000
    27  H    1.070000   0.000000
    28  H    1.070000   1.747303   0.000000
    29  H    1.070000   1.747303   1.747303   0.000000
    30  C    3.069200   3.939676   2.675171   3.600616   0.000000
    31  H    4.090565   4.991367   3.704880   4.515462   1.070000
    32  H    2.934292   3.826968   2.235107   3.379454   1.070000
    33  H    3.209329   3.851208   2.825437   3.990278   1.070000
                   31         32         33
    31  H    0.000000
    32  H    1.747303   0.000000
    33  H    1.747303   1.747303   0.000000
 Stoichiometry    C11H22
 Framework group  C1[X(C11H22)]
 Deg. of freedom    93
 Full point group                 C1      NOp   1
 Largest Abelian subgroup         C1      NOp   1
 Largest concise Abelian subgroup C1      NOp   1
                         Standard orientation:                         
 ---------------------------------------------------------------------
 Center     Atomic      Atomic             Coordinates (Angstroms)
 Number     Number       Type             X           Y           Z
 ---------------------------------------------------------------------
      1          6           0        0.835648   -1.200810   -0.364044
      2          6           0        1.698989    0.020619   -0.124598
      3          6           0        1.004883    1.326411   -0.443739
      4          6           0       -0.225213   -1.385590    0.701055
      5          6           0       -0.295456    1.522742    0.308074
      6          6           0       -1.538722   -0.695835    0.399806
      7          6           0       -1.422193    0.671502   -0.239405
      8          1           0        0.355966   -1.134650   -1.375284
      9          1           0        0.809663    1.383966   -1.547641
     10          1           0       -0.142065    1.301679    1.396489
     11          1           0        0.169748   -1.017104    1.685598
     12          1           0       -2.112776   -0.603654    1.361011
     13          1           0        1.500565   -2.106049   -0.370278
     14          1           0        1.700910    2.169909   -0.187469
     15          1           0       -0.428722   -2.483387    0.826188
     16          1           0       -0.589260    2.603826    0.226746
     17          1           0       -1.291674    0.552383   -1.348445
     18          6           0        2.961058   -0.086056   -1.000614
     19          1           0        3.574289    0.777632   -0.849315
     20          1           0        3.509291   -0.964437   -0.730821
     21          1           0        2.676485   -0.145481   -2.030365
     22          6           0        2.166836    0.036540    1.342530
     23          1           0        2.505190   -0.940006    1.619613
     24          1           0        2.968365    0.736602    1.453718
     25          1           0        1.352014    0.324085    1.973627
     26          6           0       -2.755804    1.412329   -0.029034
     27          1           0       -2.743573    2.331347   -0.576900
     28          1           0       -3.562187    0.800754   -0.376341
     29          1           0       -2.888253    1.619617    1.012306
     30          6           0       -2.373770   -1.590709   -0.534805
     31          1           0       -2.133721   -2.617595   -0.353751
     32          1           0       -3.414718   -1.429290   -0.346998
     33          1           0       -2.153067   -1.347003   -1.553037
 ---------------------------------------------------------------------
 Rotational constants (GHZ):      1.7460963      0.8088652      0.6753003
 Standard basis: 3-21G (6D, 7F)
 There are   143 symmetry adapted basis functions of A   symmetry.
 Integral buffers will be    131072 words long.
 Raffenetti 1 integral format.
 Two-electron integral symmetry is turned on.
   143 basis functions,   231 primitive gaussians,   143 cartesian basis functions
    44 alpha electrons       44 beta electrons
       nuclear repulsion energy       710.2772665727 Hartrees.
 NAtoms=   33 NActive=   33 NUniq=   33 SFac= 1.00D+00 NAtFMM=   60 NAOKFM=F Big=F
 One-electron integrals computed using PRISM.
 NBasis=   143 RedAO= T  NBF=   143
 NBsUse=   143 1.00D-06 NBFU=   143
 Harris functional with IExCor=  205 diagonalized for initial guess.
 ExpMin= 1.83D-01 ExpMax= 1.72D+02 ExpMxC= 1.72D+02 IAcc=1 IRadAn=         1 AccDes= 0.00D+00
 HarFok:  IExCor=  205 AccDes= 0.00D+00 IRadAn=         1 IDoV= 1
 ScaDFX=  1.000000  1.000000  1.000000  1.000000
 FoFCou: FMM=F IPFlag=           0 FMFlag=      100000 FMFlg1=           0
         NFxFlg=           0 DoJE=T BraDBF=F KetDBF=T FulRan=T
         Omega=  0.000000  0.000000  1.000000  0.000000  0.000000 ICntrl=     500 IOpCl=  0
         NMat0=    1 NMatS0=    1 NMatT0=    0 NMatD0=    1 NMtDS0=    0 NMtDT0=    0
         I1Cent=           4 NGrid=           0.
 Petite list used in FoFCou.
 Initial guess orbital symmetries:
       Occupied  (A) (A) (A) (A) (A) (A) (A) (A) (A) (A) (A) (A)
                 (A) (A) (A) (A) (A) (A) (A) (A) (A) (A) (A) (A)
                 (A) (A) (A) (A) (A) (A) (A) (A) (A) (A) (A) (A)
                 (A) (A) (A) (A) (A) (A) (A) (A)
       Virtual   (A) (A) (A) (A) (A) (A) (A) (A) (A) (A) (A) (A)
                 (A) (A) (A) (A) (A) (A) (A) (A) (A) (A) (A) (A)
                 (A) (A) (A) (A) (A) (A) (A) (A) (A) (A) (A) (A)
                 (A) (A) (A) (A) (A) (A) (A) (A) (A) (A) (A) (A)
                 (A) (A) (A) (A) (A) (A) (A) (A) (A) (A) (A) (A)
                 (A) (A) (A) (A) (A) (A) (A) (A) (A) (A) (A) (A)
                 (A) (A) (A) (A) (A) (A) (A) (A) (A) (A) (A) (A)
                 (A) (A) (A) (A) (A) (A) (A) (A) (A) (A) (A) (A)
                 (A) (A) (A)
 The electronic state of the initial guess is 1-A.
 Requested convergence on RMS density matrix=1.00D-08 within 128 cycles.
 Requested convergence on MAX density matrix=1.00D-06.
 Requested convergence on             energy=1.00D-06.
 No special actions if energy rises.
 Integral accuracy reduced to 1.0D-05 until final iterations.
 Initial convergence to 1.0D-05 achieved.  Increase integral accuracy.
 SCF Done:  E(RHF) =  -426.972095292     A.U. after   11 cycles
             Convg  =    0.7101D-08             -V/T =  2.0003

 **********************************************************************

            Population analysis using the SCF density.

 **********************************************************************

 Orbital symmetries:
       Occupied  (A) (A) (A) (A) (A) (A) (A) (A) (A) (A) (A) (A)
                 (A) (A) (A) (A) (A) (A) (A) (A) (A) (A) (A) (A)
                 (A) (A) (A) (A) (A) (A) (A) (A) (A) (A) (A) (A)
                 (A) (A) (A) (A) (A) (A) (A) (A)
       Virtual   (A) (A) (A) (A) (A) (A) (A) (A) (A) (A) (A) (A)
                 (A) (A) (A) (A) (A) (A) (A) (A) (A) (A) (A) (A)
                 (A) (A) (A) (A) (A) (A) (A) (A) (A) (A) (A) (A)
                 (A) (A) (A) (A) (A) (A) (A) (A) (A) (A) (A) (A)
                 (A) (A) (A) (A) (A) (A) (A) (A) (A) (A) (A) (A)
                 (A) (A) (A) (A) (A) (A) (A) (A) (A) (A) (A) (A)
                 (A) (A) (A) (A) (A) (A) (A) (A) (A) (A) (A) (A)
                 (A) (A) (A) (A) (A) (A) (A) (A) (A) (A) (A) (A)
                 (A) (A) (A)
 The electronic state is 1-A.
 Alpha  occ. eigenvalues --  -11.16478 -11.15955 -11.15868 -11.15641 -11.15581
 Alpha  occ. eigenvalues --  -11.15534 -11.15197 -11.13985 -11.13817 -11.13754
 Alpha  occ. eigenvalues --  -11.13744  -1.14616  -1.09443  -1.04290  -0.97520
 Alpha  occ. eigenvalues --   -0.96065  -0.93599  -0.88684  -0.84778  -0.82400
 Alpha  occ. eigenvalues --   -0.73986  -0.70822  -0.64797  -0.64135  -0.62948
 Alpha  occ. eigenvalues --   -0.61406  -0.58531  -0.57253  -0.56385  -0.56252
 Alpha  occ. eigenvalues --   -0.54263  -0.53167  -0.52550  -0.51837  -0.50702
 Alpha  occ. eigenvalues --   -0.49522  -0.49172  -0.47308  -0.43704  -0.43259
 Alpha  occ. eigenvalues --   -0.42818  -0.41756  -0.41585  -0.41293
 Alpha virt. eigenvalues --    0.23974   0.24551   0.26924   0.28305   0.29644
 Alpha virt. eigenvalues --    0.30104   0.31364   0.31947   0.33254   0.33962
 Alpha virt. eigenvalues --    0.34033   0.35304   0.35946   0.37000   0.37335
 Alpha virt. eigenvalues --    0.38174   0.38621   0.40192   0.41436   0.41967
 Alpha virt. eigenvalues --    0.42222   0.43543   0.44561   0.45244   0.46862
 Alpha virt. eigenvalues --    0.47400   0.48552   0.49627   0.50923   0.52205
 Alpha virt. eigenvalues --    0.52557   0.54333   0.59101   0.88634   0.90231
 Alpha virt. eigenvalues --    0.90726   0.91899   0.92796   0.94885   0.96970
 Alpha virt. eigenvalues --    0.97701   1.00024   1.02182   1.04058   1.04430
 Alpha virt. eigenvalues --    1.06028   1.09055   1.10382   1.11506   1.11836
 Alpha virt. eigenvalues --    1.14542   1.17030   1.18114   1.19857   1.20693
 Alpha virt. eigenvalues --    1.22570   1.24703   1.25987   1.29987   1.30480
 Alpha virt. eigenvalues --    1.33375   1.34228   1.35671   1.36753   1.37618
 Alpha virt. eigenvalues --    1.38244   1.39539   1.40140   1.40587   1.41636
 Alpha virt. eigenvalues --    1.42047   1.42160   1.43028   1.44595   1.44819
 Alpha virt. eigenvalues --    1.45877   1.46045   1.49317   1.49903   1.50623
 Alpha virt. eigenvalues --    1.52261   1.53220   1.55774   1.59138   1.67888
 Alpha virt. eigenvalues --    1.72685   1.73472   1.81637   1.91667   2.00642
 Alpha virt. eigenvalues --    2.16339   2.22444   2.32977   2.38960   2.52808
 Alpha virt. eigenvalues --    2.57805   2.77041   2.89983   3.00349
          Condensed to atoms (all electrons):
              1          2          3          4          5          6
     1  C    5.528921   0.224831  -0.079702   0.224691   0.002457  -0.087261
     2  C    0.224831   5.888746   0.231315  -0.088642  -0.088168   0.005668
     3  C   -0.079702   0.231315   5.486242   0.006104   0.244205   0.005206
     4  C    0.224691  -0.088642   0.006104   5.526602  -0.010244   0.242252
     5  C    0.002457  -0.088168   0.244205  -0.010244   5.536601  -0.073682
     6  C   -0.087261   0.005668   0.005206   0.242252  -0.073682   5.681354
     7  C   -0.009101   0.006048  -0.092576  -0.063510   0.211251   0.212002
     8  H    0.393769  -0.048785  -0.002343  -0.045204   0.000315  -0.006444
     9  H   -0.001287  -0.049041   0.393260   0.000049  -0.046167   0.000232
    10  H    0.000952  -0.004715  -0.043976  -0.002321   0.386791  -0.003061
    11  H   -0.044606  -0.008995   0.000631   0.397257  -0.000346  -0.048990
    12  H    0.003850  -0.000160  -0.000019  -0.046546   0.001340   0.409690
    13  H    0.399882  -0.050831   0.003651  -0.044985  -0.000114   0.003774
    14  H    0.003856  -0.049659   0.396234  -0.000143  -0.045789  -0.000119
    15  H   -0.045279   0.004084  -0.000118   0.400618   0.000004  -0.048490
    16  H   -0.000133   0.004084  -0.045681  -0.000011   0.402274   0.003767
    17  H    0.000265  -0.000036  -0.004063   0.000563  -0.048327  -0.046933
    18  C   -0.088927   0.287315  -0.091129   0.004345   0.004287  -0.000105
    19  H    0.004463  -0.048321  -0.001224  -0.000096  -0.000023   0.000002
    20  H   -0.001581  -0.048306   0.004459  -0.000057  -0.000093   0.000001
    21  H   -0.000805  -0.049046  -0.001282  -0.000036  -0.000065   0.000001
    22  C   -0.087950   0.260456  -0.094495  -0.015061  -0.005507   0.000385
    23  H   -0.001698  -0.047558   0.004197  -0.001141   0.000032   0.000052
    24  H    0.003862  -0.045356  -0.000143   0.000484   0.000272  -0.000020
    25  H    0.000187  -0.046415  -0.003167  -0.004715  -0.000775   0.000348
    26  C   -0.000023  -0.000087   0.004444   0.004093  -0.085780  -0.098615
    27  H    0.000002   0.000002  -0.000035  -0.000075  -0.002289   0.004676
    28  H   -0.000005   0.000003  -0.000101   0.000035   0.004394  -0.002727
    29  H   -0.000001  -0.000001   0.000001  -0.000089  -0.001347  -0.001455
    30  C    0.004613  -0.000141  -0.000209  -0.098429   0.004907   0.245000
    31  H    0.000167   0.000003   0.000001  -0.005502  -0.000089  -0.047149
    32  H   -0.000043  -0.000001   0.000000   0.003997  -0.000088  -0.044992
    33  H    0.000561   0.000029  -0.000021   0.002075   0.000132  -0.051395
              7          8          9         10         11         12
     1  C   -0.009101   0.393769  -0.001287   0.000952  -0.044606   0.003850
     2  C    0.006048  -0.048785  -0.049041  -0.004715  -0.008995  -0.000160
     3  C   -0.092576  -0.002343   0.393260  -0.043976   0.000631  -0.000019
     4  C   -0.063510  -0.045204   0.000049  -0.002321   0.397257  -0.046546
     5  C    0.211251   0.000315  -0.046167   0.386791  -0.000346   0.001340
     6  C    0.212002  -0.006444   0.000232  -0.003061  -0.048990   0.409690
     7  C    5.710069  -0.000855  -0.004828  -0.048789   0.001004  -0.048255
     8  H   -0.000855   0.522209   0.001839   0.000054   0.002716   0.000089
     9  H   -0.004828   0.001839   0.529538   0.003027  -0.000011   0.000000
    10  H   -0.048789   0.000054   0.003027   0.528531  -0.000491   0.001211
    11  H    0.001004   0.002716  -0.000011  -0.000491   0.524640  -0.003854
    12  H   -0.048255   0.000089   0.000000   0.001211  -0.003854   0.525260
    13  H   -0.000023  -0.021999  -0.000055  -0.000017   0.000792  -0.000050
    14  H    0.004197  -0.000001  -0.023079  -0.000267  -0.000008   0.000000
    15  H    0.003900   0.000686   0.000001  -0.000009  -0.023381  -0.000074
    16  H   -0.050594  -0.000007  -0.000463  -0.023093  -0.000001  -0.000079
    17  H    0.405963   0.000900   0.004013   0.002920  -0.000041   0.002992
    18  C   -0.000132  -0.000491  -0.002555   0.000007   0.000075   0.000001
    19  H    0.000000  -0.000071   0.000010   0.000001  -0.000001   0.000000
    20  H    0.000002   0.000016   0.000015   0.000001   0.000005   0.000000
    21  H   -0.000001   0.001956   0.002627   0.000000   0.000000   0.000000
    22  C    0.000532   0.003917   0.003967  -0.001016  -0.005282   0.000007
    23  H   -0.000013   0.000017  -0.000062   0.000023  -0.000303   0.000001
    24  H   -0.000001  -0.000047  -0.000065   0.000077   0.000495   0.000000
    25  H    0.000076  -0.000139  -0.000029   0.002051  -0.003646   0.000015
    26  C    0.270904  -0.000031   0.000034   0.001909  -0.000059  -0.006058
    27  H   -0.046670   0.000002   0.000033   0.000028   0.000000   0.000159
    28  H   -0.046686  -0.000002  -0.000003  -0.000108  -0.000001  -0.000110
    29  H   -0.050273  -0.000001   0.000001   0.001170  -0.000003   0.003258
    30  C   -0.099892   0.001336  -0.000018   0.000078   0.004159  -0.043694
    31  H    0.004332   0.000189   0.000000   0.000000   0.000126   0.000770
    32  H    0.001427   0.000011   0.000000  -0.000001  -0.000078  -0.004002
    33  H   -0.005039   0.000341  -0.000007   0.000003  -0.000098   0.003189
             13         14         15         16         17         18
     1  C    0.399882   0.003856  -0.045279  -0.000133   0.000265  -0.088927
     2  C   -0.050831  -0.049659   0.004084   0.004084  -0.000036   0.287315
     3  C    0.003651   0.396234  -0.000118  -0.045681  -0.004063  -0.091129
     4  C   -0.044985  -0.000143   0.400618  -0.000011   0.000563   0.004345
     5  C   -0.000114  -0.045789   0.000004   0.402274  -0.048327   0.004287
     6  C    0.003774  -0.000119  -0.048490   0.003767  -0.046933  -0.000105
     7  C   -0.000023   0.004197   0.003900  -0.050594   0.405963  -0.000132
     8  H   -0.021999  -0.000001   0.000686  -0.000007   0.000900  -0.000491
     9  H   -0.000055  -0.023079   0.000001  -0.000463   0.004013  -0.002555
    10  H   -0.000017  -0.000267  -0.000009  -0.023093   0.002920   0.000007
    11  H    0.000792  -0.000008  -0.023381  -0.000001  -0.000041   0.000075
    12  H   -0.000050   0.000000  -0.000074  -0.000079   0.002992   0.000001
    13  H    0.519579  -0.000062  -0.005298   0.000002  -0.000001  -0.004730
    14  H   -0.000062   0.528825   0.000001  -0.003812   0.000107  -0.002317
    15  H   -0.005298   0.000001   0.523176   0.000001  -0.000061  -0.000076
    16  H    0.000002  -0.003812   0.000001   0.518140   0.000692  -0.000067
    17  H   -0.000001   0.000107  -0.000061   0.000692   0.525666  -0.000033
    18  C   -0.004730  -0.002317  -0.000076  -0.000067  -0.000033   5.353335
    19  H    0.000108   0.002336   0.000001  -0.000001   0.000000   0.382495
    20  H    0.002819  -0.000022  -0.000003   0.000001   0.000001   0.383323
    21  H    0.000014   0.000032   0.000000  -0.000001  -0.000001   0.381079
    22  C   -0.000449  -0.002660   0.000128   0.000021  -0.000008  -0.093859
    23  H    0.001823   0.000001  -0.000078   0.000001   0.000001  -0.000467
    24  H   -0.000071   0.001953  -0.000002  -0.000014   0.000000  -0.003455
    25  H    0.000022   0.000002   0.000069   0.000024  -0.000006   0.004081
    26  C    0.000000  -0.000096  -0.000076  -0.007220  -0.044027   0.000001
    27  H    0.000000  -0.000005   0.000001   0.002438  -0.001640   0.000000
    28  H    0.000000   0.000001   0.000000   0.000256  -0.001564   0.000000
    29  H    0.000000   0.000002  -0.000001   0.000230   0.003346   0.000000
    30  C   -0.000170   0.000001  -0.008481  -0.000083  -0.006353   0.000001
    31  H   -0.000037   0.000000   0.003585   0.000001   0.000109   0.000000
    32  H    0.000001   0.000000   0.000166   0.000001   0.000233   0.000000
    33  H   -0.000016   0.000000   0.000297  -0.000005   0.004683   0.000000
             19         20         21         22         23         24
     1  C    0.004463  -0.001581  -0.000805  -0.087950  -0.001698   0.003862
     2  C   -0.048321  -0.048306  -0.049046   0.260456  -0.047558  -0.045356
     3  C   -0.001224   0.004459  -0.001282  -0.094495   0.004197  -0.000143
     4  C   -0.000096  -0.000057  -0.000036  -0.015061  -0.001141   0.000484
     5  C   -0.000023  -0.000093  -0.000065  -0.005507   0.000032   0.000272
     6  C    0.000002   0.000001   0.000001   0.000385   0.000052  -0.000020
     7  C    0.000000   0.000002  -0.000001   0.000532  -0.000013  -0.000001
     8  H   -0.000071   0.000016   0.001956   0.003917   0.000017  -0.000047
     9  H    0.000010   0.000015   0.002627   0.003967  -0.000062  -0.000065
    10  H    0.000001   0.000001   0.000000  -0.001016   0.000023   0.000077
    11  H   -0.000001   0.000005   0.000000  -0.005282  -0.000303   0.000495
    12  H    0.000000   0.000000   0.000000   0.000007   0.000001   0.000000
    13  H    0.000108   0.002819   0.000014  -0.000449   0.001823  -0.000071
    14  H    0.002336  -0.000022   0.000032  -0.002660   0.000001   0.001953
    15  H    0.000001  -0.000003   0.000000   0.000128  -0.000078  -0.000002
    16  H   -0.000001   0.000001  -0.000001   0.000021   0.000001  -0.000014
    17  H    0.000000   0.000001  -0.000001  -0.000008   0.000001   0.000000
    18  C    0.382495   0.383323   0.381079  -0.093859  -0.000467  -0.003455
    19  H    0.515103  -0.025205  -0.024991  -0.001791   0.000032   0.002231
    20  H   -0.025205   0.514565  -0.025060  -0.001737   0.001676  -0.000033
    21  H   -0.024991  -0.025060   0.515876   0.004547  -0.000088   0.000042
    22  C   -0.001791  -0.001737   0.004547   5.421455   0.383092   0.383859
    23  H    0.000032   0.001676  -0.000088   0.383092   0.510134  -0.023825
    24  H    0.002231  -0.000033   0.000042   0.383859  -0.023825   0.506305
    25  H   -0.000049  -0.000017  -0.000083   0.383389  -0.026517  -0.026212
    26  C    0.000000   0.000000   0.000000  -0.000003   0.000000   0.000000
    27  H    0.000000   0.000000   0.000000   0.000000   0.000000   0.000000
    28  H    0.000000   0.000000   0.000000   0.000000   0.000000   0.000000
    29  H    0.000000   0.000000   0.000000  -0.000001   0.000000   0.000000
    30  C    0.000000   0.000000   0.000000  -0.000006   0.000000   0.000000
    31  H    0.000000   0.000000   0.000000   0.000000   0.000000   0.000000
    32  H    0.000000   0.000000   0.000000   0.000000   0.000000   0.000000
    33  H    0.000000   0.000000   0.000000   0.000000   0.000000   0.000000
             25         26         27         28         29         30
     1  C    0.000187  -0.000023   0.000002  -0.000005  -0.000001   0.004613
     2  C   -0.046415  -0.000087   0.000002   0.000003  -0.000001  -0.000141
     3  C   -0.003167   0.004444  -0.000035  -0.000101   0.000001  -0.000209
     4  C   -0.004715   0.004093  -0.000075   0.000035  -0.000089  -0.098429
     5  C   -0.000775  -0.085780  -0.002289   0.004394  -0.001347   0.004907
     6  C    0.000348  -0.098615   0.004676  -0.002727  -0.001455   0.245000
     7  C    0.000076   0.270904  -0.046670  -0.046686  -0.050273  -0.099892
     8  H   -0.000139  -0.000031   0.000002  -0.000002  -0.000001   0.001336
     9  H   -0.000029   0.000034   0.000033  -0.000003   0.000001  -0.000018
    10  H    0.002051   0.001909   0.000028  -0.000108   0.001170   0.000078
    11  H   -0.003646  -0.000059   0.000000  -0.000001  -0.000003   0.004159
    12  H    0.000015  -0.006058   0.000159  -0.000110   0.003258  -0.043694
    13  H    0.000022   0.000000   0.000000   0.000000   0.000000  -0.000170
    14  H    0.000002  -0.000096  -0.000005   0.000001   0.000002   0.000001
    15  H    0.000069  -0.000076   0.000001   0.000000  -0.000001  -0.008481
    16  H    0.000024  -0.007220   0.002438   0.000256   0.000230  -0.000083
    17  H   -0.000006  -0.044027  -0.001640  -0.001564   0.003346  -0.006353
    18  C    0.004081   0.000001   0.000000   0.000000   0.000000   0.000001
    19  H   -0.000049   0.000000   0.000000   0.000000   0.000000   0.000000
    20  H   -0.000017   0.000000   0.000000   0.000000   0.000000   0.000000
    21  H   -0.000083   0.000000   0.000000   0.000000   0.000000   0.000000
    22  C    0.383389  -0.000003   0.000000   0.000000  -0.000001  -0.000006
    23  H   -0.026517   0.000000   0.000000   0.000000   0.000000   0.000000
    24  H   -0.026212   0.000000   0.000000   0.000000   0.000000   0.000000
    25  H    0.520268  -0.000005   0.000000   0.000000  -0.000002  -0.000008
    26  C   -0.000005   5.367711   0.383969   0.382305   0.379392   0.001057
    27  H    0.000000   0.383969   0.512006  -0.024614  -0.025388  -0.000160
    28  H    0.000000   0.382305  -0.024614   0.510041  -0.025965  -0.000211
    29  H   -0.000002   0.379392  -0.025388  -0.025965   0.518978   0.000149
    30  C   -0.000008   0.001057  -0.000160  -0.000211   0.000149   5.410584
    31  H    0.000000   0.000031   0.000001   0.000051  -0.000005   0.385386
    32  H    0.000000  -0.000269   0.000004   0.000599   0.000089   0.381814
    33  H    0.000000   0.000296  -0.000005   0.000134   0.000011   0.379022
             31         32         33
     1  C    0.000167  -0.000043   0.000561
     2  C    0.000003  -0.000001   0.000029
     3  C    0.000001   0.000000  -0.000021
     4  C   -0.005502   0.003997   0.002075
     5  C   -0.000089  -0.000088   0.000132
     6  C   -0.047149  -0.044992  -0.051395
     7  C    0.004332   0.001427  -0.005039
     8  H    0.000189   0.000011   0.000341
     9  H    0.000000   0.000000  -0.000007
    10  H    0.000000  -0.000001   0.000003
    11  H    0.000126  -0.000078  -0.000098
    12  H    0.000770  -0.004002   0.003189
    13  H   -0.000037   0.000001  -0.000016
    14  H    0.000000   0.000000   0.000000
    15  H    0.003585   0.000166   0.000297
    16  H    0.000001   0.000001  -0.000005
    17  H    0.000109   0.000233   0.004683
    18  C    0.000000   0.000000   0.000000
    19  H    0.000000   0.000000   0.000000
    20  H    0.000000   0.000000   0.000000
    21  H    0.000000   0.000000   0.000000
    22  C    0.000000   0.000000   0.000000
    23  H    0.000000   0.000000   0.000000
    24  H    0.000000   0.000000   0.000000
    25  H    0.000000   0.000000   0.000000
    26  C    0.000031  -0.000269   0.000296
    27  H    0.000001   0.000004  -0.000005
    28  H    0.000051   0.000599   0.000134
    29  H   -0.000005   0.000089   0.000011
    30  C    0.385386   0.381814   0.379022
    31  H    0.507052  -0.024153  -0.025108
    32  H   -0.024153   0.507125  -0.025072
    33  H   -0.025108  -0.025072   0.518319
 Mulliken atomic charges:
              1
     1  C   -0.348929
     2  C   -0.238322
     3  C   -0.319668
     4  C   -0.386359
     5  C   -0.390370
     6  C   -0.252973
     7  C   -0.264467
     8  H    0.196057
     9  H    0.189025
    10  H    0.199032
    11  H    0.208296
    12  H    0.201066
    13  H    0.196442
    14  H    0.190490
    15  H    0.194706
    16  H    0.199333
    17  H    0.200641
    18  C   -0.511999
    19  H    0.194992
    20  H    0.195230
    21  H    0.195285
    22  C   -0.535932
    23  H    0.200668
    24  H    0.199665
    25  H    0.201253
    26  C   -0.553799
    27  H    0.197560
    28  H    0.204280
    29  H    0.197903
    30  C   -0.560252
    31  H    0.200237
    32  H    0.203232
    33  H    0.197675
 Sum of Mulliken atomic charges =   0.00000
 Mulliken charges with hydrogens summed into heavy atoms:
              1
     1  C    0.043570
     2  C   -0.238322
     3  C    0.059848
     4  C    0.016643
     5  C    0.007994
     6  C   -0.051907
     7  C   -0.063826
    18  C    0.073508
    22  C    0.065655
    26  C    0.045944
    30  C    0.040892
 Sum of Mulliken charges with hydrogens summed into heavy atoms =   0.00000
 Electronic spatial extent (au):  <R**2>=           1996.5647
 Charge=              0.0000 electrons
 Dipole moment (field-independent basis, Debye):
    X=             -0.0108    Y=              0.0234    Z=              0.0586  Tot=              0.0641
 Quadrupole moment (field-independent basis, Debye-Ang):
   XX=            -76.1570   YY=            -75.0646   ZZ=            -74.9582
   XY=             -0.0559   XZ=              0.0998   YZ=             -0.2414
 Traceless Quadrupole moment (field-independent basis, Debye-Ang):
   XX=             -0.7637   YY=              0.3287   ZZ=              0.4350
   XY=             -0.0559   XZ=              0.0998   YZ=             -0.2414
 Octapole moment (field-independent basis, Debye-Ang**2):
  XXX=             -0.0977  YYY=             -0.9681  ZZZ=             -1.5280  XYY=              3.2803
  XXY=             -0.2625  XXZ=              2.3324  XZZ=             -2.5700  YZZ=              1.0396
  YYZ=              0.6746  XYZ=              0.5984
 Hexadecapole moment (field-independent basis, Debye-Ang**3):
 XXXX=          -1736.5110 YYYY=           -707.9567 ZZZZ=           -351.3558 XXXY=              8.3594
 XXXZ=              3.8938 YYYX=             -3.7753 YYYZ=             -4.9786 ZZZX=             -3.6205
 ZZZY=              1.1742 XXYY=           -407.4256 XXZZ=           -355.5856 YYZZ=           -185.0959
 XXYZ=             -1.8935 YYXZ=              1.8724 ZZXY=             -2.3156
 N-N= 7.102772665727D+02 E-N=-2.412815430267D+03  KE= 4.268446929608D+02
 1\1\GINC-NODE02\SP\RHF\3-21G\C11H22\SC4102.04\26-Jun-2022\0\\# hf/3-21
 g geom=connectivity\\mol_3\\0,1\C,0,1.03375275,2.03239319,-1.06226511\
 C,0,2.54853975,2.03239319,-1.06226511\C,0,3.15540075,3.41819519,-1.062
 26511\C,0,0.44849075,2.40064319,0.28527489\C,0,2.69143175,4.28453119,0
 .09048989\C,0,0.20842175,3.88297619,0.47730289\C,0,1.27632975,4.792559
 19,-0.09191811\H,0,0.65386075,2.73423319,-1.84978111\H,0,2.91604975,3.
 92924319,-2.03260711\H,0,2.77265275,3.71318119,1.05174289\H,0,1.126348
 75,2.02645419,1.09865889\H,0,0.10751275,4.08019119,1.57860889\H,0,0.68
 180375,1.00194019,-1.33778411\H,0,4.27274875,3.31605619,-1.01012711\H,
 0,-0.53291225,1.86911119,0.41394189\H,0,3.38284275,5.16630819,0.168589
 89\H,0,1.07935975,4.95660419,-1.18530111\C,0,3.0433572,1.2847993,-2.31
 44069\H,0,4.11320274,1.28813044,-2.3322789\H,0,2.69019414,0.2750624,-2
 .28976455\H,0,2.67047627,1.77177319,-3.19117155\C,0,3.05993505,1.25124
 843,0.16243391\H,0,2.50915168,0.33899755,0.25905701\H,0,4.09882259,1.0
 2888269,0.03528768\H,0,2.92715084,1.84312186,1.04388396\C,0,1.14685819
 ,6.16682979,0.59088306\H,0,1.8082649,6.86319249,0.11916264\H,0,0.13923
 127,6.515692,0.50209597\H,0,1.40312094,6.07645482,1.6258042\C,0,-1.136
 81246,4.26234875,-0.16924284\H,0,-1.79939526,3.42297483,-0.13269873\H,
 0,-1.57024802,5.08238326,0.36421477\H,0,-0.97546942,4.54527808,-1.1884
 6775\\Version=EM64L-G09RevC.01\State=1-A\HF=-426.9720953\RMSD=7.101e-0
 9\Dipole=0.0086609,0.0017165,0.0236109\Quadrupole=-0.088095,-0.072472,
 0.160567,0.3599848,0.074871,-0.3580596\PG=C01 [X(C11H22)]\\@


 THEREFORE SHALL EVIL COME UPON THEE...
 THOU SHALT NOT KNOW FROM WHENCE IT RISETH...
 AND MISCHIEF SHALL FALL UPON THEE...
 THOU SHALT NOT BE ABLE TO PUT IT OFF...
 AND DESOLATION SHALL COME UPON THEE SUDDENLY...
 WHICH THOU SHALT NOT KNOW...

                                         ISAIAH 47.11
 Job cpu time:  0 days  0 hours  0 minutes 14.1 seconds.
 File lengths (MBytes):  RWF=     15 Int=      0 D2E=      0 Chk=      3 Scr=      1
 Normal termination of Gaussian 09 at Sun Jun 26 00:29:10 2022.
