 Entering Gaussian System, Link 0=g09
 Input=/home/iiit/sc4102.04/Tut_assignment_5/Problem_1/Mol_4/mol_4.com
 Output=/home/iiit/sc4102.04/Tut_assignment_5/Problem_1/Mol_4/mol_4.log
 Initial command:
 /global/g09-revC/l1.exe /scratch/Gau-18569.inp -scrdir=/scratch/
 Entering Link 1 = /global/g09-revC/l1.exe PID=     18571.
  
 Copyright (c) 1988,1990,1992,1993,1995,1998,2003,2009,2011,
            Gaussian, Inc.  All Rights Reserved.
  
 This is part of the Gaussian(R) 09 program.  It is based on
 the Gaussian(R) 03 system (copyright 2003, Gaussian, Inc.),
 the Gaussian(R) 98 system (copyright 1998, Gaussian, Inc.),
 the Gaussian(R) 94 system (copyright 1995, Gaussian, Inc.),
 the Gaussian 92(TM) system (copyright 1992, Gaussian, Inc.),
 the Gaussian 90(TM) system (copyright 1990, Gaussian, Inc.),
 the Gaussian 88(TM) system (copyright 1988, Gaussian, Inc.),
 the Gaussian 86(TM) system (copyright 1986, Carnegie Mellon
 University), and the Gaussian 82(TM) system (copyright 1983,
 Carnegie Mellon University). Gaussian is a federally registered
 trademark of Gaussian, Inc.
  
 This software contains proprietary and confidential information,
 including trade secrets, belonging to Gaussian, Inc.
  
 This software is provided under written license and may be
 used, copied, transmitted, or stored only in accord with that
 written license.
  
 The following legend is applicable only to US Government
 contracts under FAR:
  
                    RESTRICTED RIGHTS LEGEND
  
 Use, reproduction and disclosure by the US Government is
 subject to restrictions as set forth in subparagraphs (a)
 and (c) of the Commercial Computer Software - Restricted
 Rights clause in FAR 52.227-19.
  
 Gaussian, Inc.
 340 Quinnipiac St., Bldg. 40, Wallingford CT 06492
  
  
 ---------------------------------------------------------------
 Warning -- This program may not be used in any manner that
 competes with the business of Gaussian, Inc. or will provide
 assistance to any competitor of Gaussian, Inc.  The licensee
 of this program is prohibited from giving any competitor of
 Gaussian, Inc. access to this program.  By using this program,
 the user acknowledges that Gaussian, Inc. is engaged in the
 business of creating and licensing software in the field of
 computational chemistry and represents and warrants to the
 licensee that it is not a competitor of Gaussian, Inc. and that
 it will not use this program in any manner prohibited above.
 ---------------------------------------------------------------
  

 Cite this work as:
 Gaussian 09, Revision C.01,
 M. J. Frisch, G. W. Trucks, H. B. Schlegel, G. E. Scuseria, 
 M. A. Robb, J. R. Cheeseman, G. Scalmani, V. Barone, B. Mennucci, 
 G. A. Petersson, H. Nakatsuji, M. Caricato, X. Li, H. P. Hratchian, 
 A. F. Izmaylov, J. Bloino, G. Zheng, J. L. Sonnenberg, M. Hada, 
 M. Ehara, K. Toyota, R. Fukuda, J. Hasegawa, M. Ishida, T. Nakajima, 
 Y. Honda, O. Kitao, H. Nakai, T. Vreven, J. A. Montgomery, Jr., 
 J. E. Peralta, F. Ogliaro, M. Bearpark, J. J. Heyd, E. Brothers, 
 K. N. Kudin, V. N. Staroverov, T. Keith, R. Kobayashi, J. Normand, 
 K. Raghavachari, A. Rendell, J. C. Burant, S. S. Iyengar, J. Tomasi, 
 M. Cossi, N. Rega, J. M. Millam, M. Klene, J. E. Knox, J. B. Cross, 
 V. Bakken, C. Adamo, J. Jaramillo, R. Gomperts, R. E. Stratmann, 
 O. Yazyev, A. J. Austin, R. Cammi, C. Pomelli, J. W. Ochterski, 
 R. L. Martin, K. Morokuma, V. G. Zakrzewski, G. A. Voth, 
 P. Salvador, J. J. Dannenberg, S. Dapprich, A. D. Daniels, 
 O. Farkas, J. B. Foresman, J. V. Ortiz, J. Cioslowski, 
 and D. J. Fox, Gaussian, Inc., Wallingford CT, 2010.
 
 ******************************************
 Gaussian 09:  EM64L-G09RevC.01 23-Sep-2011
                26-Jun-2022 
 ******************************************
 %chk=mol_4.chk
 ----------------------------
 # hf/3-21g geom=connectivity
 ----------------------------
 1/38=1,57=2/1;
 2/12=2,17=6,18=5,40=1/2;
 3/5=5,11=9,16=1,25=1,30=1/1,2,3;
 4//1;
 5/5=2,38=5/2;
 6/7=2,8=2,9=2,10=2,28=1/1;
 99/5=1,9=1/99;
 -----
 mol_4
 -----
 Charge =  0 Multiplicity = 1
 Symbolic Z-Matrix:
 C                     6.62775   1.82617  -0.5717 
 C                     8.12886   1.82617  -0.5717 
 C                     7.37828   3.12615  -0.5717 
 H                     8.66542   1.51641   0.34219 
 H                     7.37806   3.74568   0.34224 
 H                     7.37806   3.74568  -1.48564 
 C                     5.87932   1.39397  -1.84632 
 H                     5.78134   0.32854  -1.85844 
 H                     4.90756   1.84167  -1.85846 
 H                     6.42905   1.71141  -2.70767 
 C                     5.87932   1.39397   0.70292 
 H                     4.90756   1.84166   0.71505 
 H                     5.78135   0.32853   0.71505 
 H                     6.42905   1.71142   1.56427 
 C                     8.87726   1.39411  -1.84639 
 H                     8.62144   0.38285  -2.08471 
 H                     8.59816   2.03332  -2.65782 
 C                     10.39552   1.49754  -1.61022 
 H                     10.6729   0.86694  -0.79149 
 H                     10.65292   2.51096  -1.383 
 C                     11.14412   1.04998  -2.87943 
 H                     10.87858   0.04004  -3.11268 
 H                     10.87482   1.68719  -3.69573 
 C                     12.66249   1.13888  -2.63808 
 H                     12.93078   0.5069   -1.8174 
 H                     12.92902   2.15009  -2.41154 
 C                     13.4111   0.68197  -3.90394 
 H                     13.14261   1.31379  -4.72468 
 H                     13.14476  -0.32932  -4.13034 
 C                     14.92947   0.77121  -3.66271 
 H                     15.19783   0.14006  -2.84141 
 H                     15.44961   0.45291  -4.54194 
 H                     15.19594   1.78266  -3.43718 
 
                          Input orientation:                          
 ---------------------------------------------------------------------
 Center     Atomic      Atomic             Coordinates (Angstroms)
 Number     Number       Type             X           Y           Z
 ---------------------------------------------------------------------
      1          6           0        6.627749    1.826175   -0.571700
      2          6           0        8.128864    1.826175   -0.571700
      3          6           0        7.378279    3.126150   -0.571700
      4          1           0        8.665425    1.516408    0.342188
      5          1           0        7.378056    3.745678    0.342244
      6          1           0        7.378056    3.745678   -1.485644
      7          6           0        5.879321    1.393971   -1.846321
      8          1           0        5.781339    0.328535   -1.858440
      9          1           0        4.907562    1.841672   -1.858460
     10          1           0        6.429053    1.711408   -2.707674
     11          6           0        5.879321    1.393971    0.702920
     12          1           0        4.907557    1.841662    0.715053
     13          1           0        5.781350    0.328535    0.715046
     14          1           0        6.429046    1.711419    1.564273
     15          6           0        8.877257    1.394113   -1.846388
     16          1           0        8.621443    0.382845   -2.084710
     17          1           0        8.598161    2.033322   -2.657817
     18          6           0       10.395522    1.497537   -1.610220
     19          1           0       10.672896    0.866940   -0.791494
     20          1           0       10.652916    2.510956   -1.383000
     21          6           0       11.144119    1.049982   -2.879431
     22          1           0       10.878577    0.040040   -3.112682
     23          1           0       10.874818    1.687193   -3.695727
     24          6           0       12.662488    1.138879   -2.638078
     25          1           0       12.930785    0.506901   -1.817395
     26          1           0       12.929022    2.150086   -2.411538
     27          6           0       13.411101    0.681971   -3.903943
     28          1           0       13.142612    1.313794   -4.724682
     29          1           0       13.144759   -0.329319   -4.130339
     30          6           0       14.929470    0.771211   -3.662714
     31          1           0       15.197829    0.140064   -2.841412
     32          1           0       15.449611    0.452913   -4.541941
     33          1           0       15.195940    1.782660   -3.437182
 ---------------------------------------------------------------------
                    Distance matrix (angstroms):
                    1          2          3          4          5
     1  C    0.000000
     2  C    1.501115   0.000000
     3  C    1.501076   1.501104   0.000000
     4  H    2.254611   1.104104   2.254597   0.000000
     5  H    2.254495   2.254661   1.104133   2.574289   0.000000
     6  H    2.254495   2.254661   1.104133   3.157203   1.827888
     7  C    1.540000   2.621430   2.621445   3.544987   3.544932
     8  H    2.148263   3.067490   3.468798   3.817297   4.366850
     9  H    2.148263   3.468829   3.067584   4.366941   3.817286
    10  H    2.148263   2.732199   2.732198   3.786956   3.786932
    11  C    1.540000   2.621430   2.621445   2.812026   2.811906
    12  H    2.148263   3.468831   3.067590   3.790301   3.141277
    13  H    2.148263   3.067485   3.468796   3.141330   3.790161
    14  H    2.148263   2.732202   2.732195   2.555956   2.555814
    15  C    2.621411   1.540000   2.621396   2.202202   3.545077
    16  H    2.889155   2.148263   3.370515   2.678942   4.329522
    17  H    2.877033   2.148263   2.652220   3.044956   3.663494
    18  C    3.922071   2.514809   3.582549   2.608733   4.239263
    19  H    4.163131   2.727736   4.000855   2.395200   4.519786
    20  H    4.162824   2.738243   3.429274   2.813454   3.902014
    21  C    5.130857   3.875546   4.880333   4.091492   5.641737
    22  H    5.264638   4.148227   5.313450   4.360485   6.158077
    23  H    5.274131   4.161625   4.904684   4.606011   5.724501
    24  C    6.415635   5.029517   6.011825   5.000103   6.603253
    25  H    6.559002   5.133292   6.264387   4.886328   6.781336
    26  H    6.572365   5.150869   5.928614   5.114961   6.398630
    27  C    7.643750   6.349415   7.312510   6.422410   7.988369
    28  H    7.742948   6.530503   7.332083   6.764572   8.050957
    29  H    7.731849   6.516845   7.606344   6.593530   8.358497
    30  C    8.921093   7.544240   8.492385   7.472136   9.050470
    31  H    9.024458   7.613464   8.672582   7.396076   9.180685
    32  H    9.771076   8.440498   9.383785   8.426798   9.992375
    33  H    9.034755   7.626038   8.433966   7.549978   8.902630
                    6          7          8          9         10
     6  H    0.000000
     7  C    2.811906   0.000000
     8  H    3.790164   1.070000   0.000000
     9  H    3.141269   1.070000   1.747303   0.000000
    10  H    2.555820   1.070000   1.747303   1.747303   0.000000
    11  C    3.544932   2.549240   2.775846   2.775864   3.469167
    12  H    3.817290   2.775858   3.110613   2.573513   3.747929
    13  H    4.366849   2.775851   2.573486   3.110630   3.747915
    14  H    3.786928   3.469167   3.747914   3.747930   4.271947
    15  C    2.812045   2.997936   3.274188   3.994863   2.614612
    16  H    3.635042   2.932309   2.849620   3.996533   2.638131
    17  H    2.407241   2.908502   3.388183   3.781034   2.193432
    18  C    3.764938   4.523553   4.766431   5.504340   4.121046
    19  H    4.430005   4.936474   5.035433   5.943702   4.732344
    20  H    3.501398   4.924381   5.359223   5.803714   4.498340
    21  C    4.836595   5.376220   5.506570   6.368971   4.764329
    22  H    5.350949   5.331919   5.257204   6.361759   4.770301
    23  H    4.620517   5.334911   5.582571   6.245603   4.554302
    24  C    6.004060   6.833982   6.972425   7.825638   6.260060
    25  H    6.436811   7.107100   7.151788   8.133597   6.672028
    26  H    5.849481   7.112627   7.396847   8.046418   6.521483
    27  C    7.185548   7.840182   7.907102   8.822646   7.158198
    28  H    7.045250   7.813244   7.960805   8.735556   7.021275
    29  H    7.540217   7.808524   7.733968   8.816238   7.161652
    30  C    8.403032   9.251611   9.334863  10.239134   8.605415
    31  H    8.717076   9.455003   9.469532  10.476224   8.909459
    32  H    9.237600   9.987112  10.034547  10.966518   9.290792
    33  H    8.293447   9.459456   9.656170  10.408966   8.797476
                   11         12         13         14         15
    11  C    0.000000
    12  H    1.070000   0.000000
    13  H    1.070000   1.747303   0.000000
    14  H    1.070000   1.747303   1.747303   0.000000
    15  C    3.935301   4.745503   4.157047   4.210348   0.000000
    16  H    4.038872   4.874399   3.988447   4.459460   1.070000
    17  H    4.369830   5.003353   4.713484   4.757597   1.070000
    18  C    5.075176   5.970182   5.297548   5.084887   1.540000
    19  H    5.048702   6.038120   5.146530   4.926768   2.148263
    20  H    5.327844   6.152961   5.735584   5.212174   2.148263
    21  C    6.377277   7.241669   6.496156   6.512750   2.514809
    22  H    6.433079   7.317819   6.380945   6.668264   2.728057
    23  H    6.662512   7.422065   6.873448   6.887167   2.737919
    24  C    7.565626   8.477992   7.697413   7.539453   3.875551
    25  H    7.540691   8.518630   7.586797   7.426920   4.149587
    26  H    7.744020   8.614790   8.011417   7.632116   4.160252
    27  C    8.857643   9.746295   8.925978   8.928059   5.029554
    28  H    9.067562   9.883597   9.205953   9.207662   5.146288
    29  H    8.894757   9.800127   8.839136   9.038474   5.137920
    30  C   10.067362  10.988605  10.151298  10.023103   6.349514
    31  H   10.048341  11.019690  10.067472   9.938348   6.520149
    32  H   10.953748  11.861682  11.005756  10.965413   7.165731
    33  H   10.202495  11.094835  10.391823  10.093466   6.527431
                   16         17         18         19         20
    16  H    0.000000
    17  H    1.747303   0.000000
    18  C    2.148263   2.148263   0.000000
    19  H    2.472897   3.024588   1.070000   0.000000
    20  H    3.024589   2.464815   1.070000   1.747303   0.000000
    21  C    2.727737   2.738243   1.540000   2.148263   2.148263
    22  H    2.503777   3.062739   2.148263   2.472647   3.024591
    23  H    3.061764   2.525912   2.148263   3.024592   2.465062
    24  C    4.148235   4.161631   2.514809   2.728058   2.737919
    25  H    4.319407   4.669893   2.729806   2.506025   3.064902
    26  H    4.667462   4.339430   2.736157   3.059593   2.523644
    27  C    5.132242   5.152026   3.875569   4.149617   4.160280
    28  H    5.317621   5.043976   4.156939   4.665742   4.335738
    29  H    5.015194   5.331224   4.152916   4.323081   4.671651
    30  C    6.513995   6.533622   5.029609   5.135318   5.149051
    31  H    6.624228   6.868315   5.140109   5.020511   5.329571
    32  H    7.257188   7.279422   5.935490   6.087222   6.101044
    33  H    6.856579   6.648379   5.144230   5.319411   5.038765
                   21         22         23         24         25
    21  C    0.000000
    22  H    1.070000   0.000000
    23  H    1.070000   1.747303   0.000000
    24  C    1.540000   2.148263   2.148263   0.000000
    25  H    2.148263   2.471292   3.024602   1.070000   0.000000
    26  H    2.148263   3.024603   2.466407   1.070000   1.747303
    27  C    2.514809   2.729807   2.736157   1.540000   2.148263
    28  H    2.732860   3.057261   2.518147   2.148263   3.024610
    29  H    2.733094   2.511500   3.067220   2.148263   2.468757
    30  C    3.875581   4.152936   4.156960   2.514809   2.733094
    31  H    4.154752   4.328918   4.670320   2.732568   2.514492
    32  H    4.653783   4.807036   4.813341   3.444314   3.710869
    33  H    4.155137   4.667081   4.329903   2.733386   3.063038
                   26         27         28         29         30
    26  H    0.000000
    27  C    2.148263   0.000000
    28  H    2.468935   1.070000   0.000000
    29  H    3.024610   1.070000   1.747303   0.000000
    30  C    2.732861   1.540000   2.148263   2.148263   0.000000
    31  H    3.061448   2.148263   3.024610   2.469160   1.070000
    32  H    3.711115   2.148263   2.469161   2.468531   1.070000
    33  H    2.515127   2.148263   2.468532   3.024610   1.070000
                   31         32         33
    31  H    0.000000
    32  H    1.747303   0.000000
    33  H    1.747303   1.747303   0.000000
 Stoichiometry    C11H22
 Framework group  C1[X(C11H22)]
 Deg. of freedom    93
 Full point group                 C1      NOp   1
 Largest Abelian subgroup         C1      NOp   1
 Largest concise Abelian subgroup C1      NOp   1
                         Standard orientation:                         
 ---------------------------------------------------------------------
 Center     Atomic      Atomic             Coordinates (Angstroms)
 Number     Number       Type             X           Y           Z
 ---------------------------------------------------------------------
      1          6           0       -3.269849    0.011778   -0.011607
      2          6           0       -1.891554   -0.581547   -0.051788
      3          6           0       -2.739311   -0.735150    1.177451
      4          1           0       -1.705560   -1.463834   -0.688985
      5          1           0       -3.159568   -1.727199    1.418967
      6          1           0       -2.470616   -0.172099    2.088432
      7          6           0       -3.423897    1.541702    0.073250
      8          1           0       -3.379322    1.959779   -0.910683
      9          1           0       -4.366188    1.781052    0.520128
     10          1           0       -2.633215    1.947274    0.669264
     11          6           0       -4.384735   -0.627098   -0.860410
     12          1           0       -5.336177   -0.408394   -0.422431
     13          1           0       -4.349289   -0.229653   -1.853224
     14          1           0       -4.243368   -1.687144   -0.895327
     15          6           0       -0.671242    0.356759   -0.006840
     16          1           0       -0.692935    1.010902   -0.853318
     17          1           0       -0.699643    0.936003    0.892365
     18          6           0        0.621169   -0.480092   -0.037778
     19          1           0        0.644188   -1.067846   -0.931599
     20          1           0        0.648234   -1.126160    0.814726
     21          6           0        1.841494    0.458840   -0.009252
     22          1           0        1.808796    1.112055   -0.856094
     23          1           0        1.824165    1.039045    0.889615
     24          6           0        3.133818   -0.377430   -0.055604
     25          1           0        3.147933   -0.962783   -0.951184
     26          1           0        3.169802   -1.025766    0.794846
     27          6           0        4.354037    0.561888   -0.037004
     28          1           0        4.339786    1.147419    0.858457
     29          1           0        4.318186    1.210055   -0.887589
     30          6           0        5.646367   -0.274395   -0.082992
     31          1           0        5.660204   -0.860587   -0.978026
     32          1           0        6.494170    0.378280   -0.070956
     33          1           0        5.682642   -0.921932    0.768055
 ---------------------------------------------------------------------
 Rotational constants (GHZ):      3.6798874      0.2878708      0.2812258
 Standard basis: 3-21G (6D, 7F)
 There are   143 symmetry adapted basis functions of A   symmetry.
 Integral buffers will be    131072 words long.
 Raffenetti 1 integral format.
 Two-electron integral symmetry is turned on.
   143 basis functions,   231 primitive gaussians,   143 cartesian basis functions
    44 alpha electrons       44 beta electrons
       nuclear repulsion energy       615.2518027811 Hartrees.
 NAtoms=   33 NActive=   33 NUniq=   33 SFac= 1.00D+00 NAtFMM=   60 NAOKFM=F Big=F
 One-electron integrals computed using PRISM.
 NBasis=   143 RedAO= T  NBF=   143
 NBsUse=   143 1.00D-06 NBFU=   143
 Harris functional with IExCor=  205 diagonalized for initial guess.
 ExpMin= 1.83D-01 ExpMax= 1.72D+02 ExpMxC= 1.72D+02 IAcc=1 IRadAn=         1 AccDes= 0.00D+00
 HarFok:  IExCor=  205 AccDes= 0.00D+00 IRadAn=         1 IDoV= 1
 ScaDFX=  1.000000  1.000000  1.000000  1.000000
 FoFCou: FMM=F IPFlag=           0 FMFlag=      100000 FMFlg1=           0
         NFxFlg=           0 DoJE=T BraDBF=F KetDBF=T FulRan=T
         Omega=  0.000000  0.000000  1.000000  0.000000  0.000000 ICntrl=     500 IOpCl=  0
         NMat0=    1 NMatS0=    1 NMatT0=    0 NMatD0=    1 NMtDS0=    0 NMtDT0=    0
         I1Cent=           4 NGrid=           0.
 Petite list used in FoFCou.
 Initial guess orbital symmetries:
       Occupied  (A) (A) (A) (A) (A) (A) (A) (A) (A) (A) (A) (A)
                 (A) (A) (A) (A) (A) (A) (A) (A) (A) (A) (A) (A)
                 (A) (A) (A) (A) (A) (A) (A) (A) (A) (A) (A) (A)
                 (A) (A) (A) (A) (A) (A) (A) (A)
       Virtual   (A) (A) (A) (A) (A) (A) (A) (A) (A) (A) (A) (A)
                 (A) (A) (A) (A) (A) (A) (A) (A) (A) (A) (A) (A)
                 (A) (A) (A) (A) (A) (A) (A) (A) (A) (A) (A) (A)
                 (A) (A) (A) (A) (A) (A) (A) (A) (A) (A) (A) (A)
                 (A) (A) (A) (A) (A) (A) (A) (A) (A) (A) (A) (A)
                 (A) (A) (A) (A) (A) (A) (A) (A) (A) (A) (A) (A)
                 (A) (A) (A) (A) (A) (A) (A) (A) (A) (A) (A) (A)
                 (A) (A) (A) (A) (A) (A) (A) (A) (A) (A) (A) (A)
                 (A) (A) (A)
 The electronic state of the initial guess is 1-A.
 Requested convergence on RMS density matrix=1.00D-08 within 128 cycles.
 Requested convergence on MAX density matrix=1.00D-06.
 Requested convergence on             energy=1.00D-06.
 No special actions if energy rises.
 Integral accuracy reduced to 1.0D-05 until final iterations.
 Initial convergence to 1.0D-05 achieved.  Increase integral accuracy.
 SCF Done:  E(RHF) =  -426.949283949     A.U. after   11 cycles
             Convg  =    0.6190D-08             -V/T =  2.0004

 **********************************************************************

            Population analysis using the SCF density.

 **********************************************************************

 Orbital symmetries:
       Occupied  (A) (A) (A) (A) (A) (A) (A) (A) (A) (A) (A) (A)
                 (A) (A) (A) (A) (A) (A) (A) (A) (A) (A) (A) (A)
                 (A) (A) (A) (A) (A) (A) (A) (A) (A) (A) (A) (A)
                 (A) (A) (A) (A) (A) (A) (A) (A)
       Virtual   (A) (A) (A) (A) (A) (A) (A) (A) (A) (A) (A) (A)
                 (A) (A) (A) (A) (A) (A) (A) (A) (A) (A) (A) (A)
                 (A) (A) (A) (A) (A) (A) (A) (A) (A) (A) (A) (A)
                 (A) (A) (A) (A) (A) (A) (A) (A) (A) (A) (A) (A)
                 (A) (A) (A) (A) (A) (A) (A) (A) (A) (A) (A) (A)
                 (A) (A) (A) (A) (A) (A) (A) (A) (A) (A) (A) (A)
                 (A) (A) (A) (A) (A) (A) (A) (A) (A) (A) (A) (A)
                 (A) (A) (A) (A) (A) (A) (A) (A) (A) (A) (A) (A)
                 (A) (A) (A)
 The electronic state is 1-A.
 Alpha  occ. eigenvalues --  -11.17534 -11.16540 -11.16039 -11.15109 -11.14992
 Alpha  occ. eigenvalues --  -11.14809 -11.14791 -11.14756 -11.14567 -11.14524
 Alpha  occ. eigenvalues --  -11.14107  -1.16310  -1.09027  -1.04390  -0.98770
 Alpha  occ. eigenvalues --   -0.95893  -0.93689  -0.88009  -0.80998  -0.79583
 Alpha  occ. eigenvalues --   -0.77878  -0.72303  -0.66670  -0.64195  -0.61903
 Alpha  occ. eigenvalues --   -0.61615  -0.59269  -0.58644  -0.56907  -0.55500
 Alpha  occ. eigenvalues --   -0.54497  -0.53758  -0.52652  -0.51949  -0.50926
 Alpha  occ. eigenvalues --   -0.49051  -0.47723  -0.47279  -0.46756  -0.46012
 Alpha  occ. eigenvalues --   -0.44956  -0.42410  -0.39275  -0.37083
 Alpha virt. eigenvalues --    0.26087   0.26553   0.27115   0.28431   0.29454
 Alpha virt. eigenvalues --    0.30632   0.31760   0.32041   0.32356   0.33647
 Alpha virt. eigenvalues --    0.34134   0.35099   0.35564   0.36114   0.37544
 Alpha virt. eigenvalues --    0.37900   0.38650   0.38893   0.39181   0.39786
 Alpha virt. eigenvalues --    0.39997   0.40836   0.41446   0.42495   0.42766
 Alpha virt. eigenvalues --    0.44241   0.44418   0.47507   0.50101   0.51508
 Alpha virt. eigenvalues --    0.51998   0.55988   0.56532   0.86274   0.89607
 Alpha virt. eigenvalues --    0.90105   0.90755   0.91708   0.92217   0.92861
 Alpha virt. eigenvalues --    0.94803   0.97065   0.98190   0.99041   1.01014
 Alpha virt. eigenvalues --    1.02464   1.03853   1.05993   1.07221   1.08672
 Alpha virt. eigenvalues --    1.11129   1.12714   1.14706   1.19025   1.20236
 Alpha virt. eigenvalues --    1.21906   1.22932   1.23418   1.24678   1.26960
 Alpha virt. eigenvalues --    1.27613   1.28650   1.29105   1.32879   1.35653
 Alpha virt. eigenvalues --    1.36577   1.38027   1.38263   1.39060   1.39406
 Alpha virt. eigenvalues --    1.40590   1.40681   1.42955   1.45116   1.45303
 Alpha virt. eigenvalues --    1.45891   1.46229   1.46779   1.47041   1.47694
 Alpha virt. eigenvalues --    1.48167   1.49202   1.52235   1.53060   1.61195
 Alpha virt. eigenvalues --    1.64634   1.65542   1.82551   1.91482   1.95050
 Alpha virt. eigenvalues --    2.12126   2.16531   2.26871   2.28494   2.35568
 Alpha virt. eigenvalues --    2.43415   2.50745   2.65963   2.87582
          Condensed to atoms (all electrons):
              1          2          3          4          5          6
     1  C    5.906441   0.065184   0.074651  -0.025011  -0.028310  -0.028662
     2  C    0.065184   5.794550   0.058631   0.403316  -0.026072  -0.026505
     3  C    0.074651   0.058631   5.597248  -0.019798   0.388787   0.388780
     4  H   -0.025011   0.403316  -0.019798   0.462094  -0.002417   0.000910
     5  H   -0.028310  -0.026072   0.388787  -0.002417   0.474785  -0.017033
     6  H   -0.028662  -0.026505   0.388780   0.000910  -0.017033   0.478506
     7  C    0.268428  -0.041741  -0.043364   0.001287   0.001390  -0.002966
     8  H   -0.050400  -0.003268   0.003992   0.000044  -0.000036   0.000003
     9  H   -0.048851   0.004053  -0.003052  -0.000026   0.000035   0.000607
    10  H   -0.044530  -0.001052  -0.000051  -0.000015  -0.000031   0.000693
    11  C    0.271849  -0.046232  -0.042372  -0.002919  -0.002488   0.001385
    12  H   -0.050504   0.004079  -0.003163   0.000023   0.000580   0.000058
    13  H   -0.050402  -0.003154   0.003940   0.000555   0.000008  -0.000036
    14  H   -0.046535  -0.000112  -0.000213   0.001063   0.000878  -0.000021
    15  C   -0.046678   0.239925  -0.049994  -0.032620   0.001662  -0.003288
    16  H   -0.006247  -0.049244   0.004346   0.000570  -0.000044   0.000002
    17  H    0.004097  -0.045916  -0.004080   0.002189   0.000058   0.002235
    18  C    0.003399  -0.077270   0.000637  -0.004770  -0.000023   0.000334
    19  H    0.000054  -0.001792   0.000010   0.002641   0.000001   0.000002
    20  H   -0.000156  -0.000838   0.000868   0.000333  -0.000028   0.000058
    21  C   -0.000073   0.004664  -0.000014   0.000082   0.000000  -0.000011
    22  H    0.000000  -0.000035  -0.000001   0.000005   0.000000   0.000000
    23  H    0.000000  -0.000026   0.000003   0.000000   0.000000  -0.000001
    24  C    0.000000  -0.000094   0.000000  -0.000003   0.000000   0.000000
    25  H    0.000000   0.000000   0.000000  -0.000001   0.000000   0.000000
    26  H    0.000000   0.000000   0.000000   0.000000   0.000000   0.000000
    27  C    0.000000   0.000000   0.000000   0.000000   0.000000   0.000000
    28  H    0.000000   0.000000   0.000000   0.000000   0.000000   0.000000
    29  H    0.000000   0.000000   0.000000   0.000000   0.000000   0.000000
    30  C    0.000000   0.000000   0.000000   0.000000   0.000000   0.000000
    31  H    0.000000   0.000000   0.000000   0.000000   0.000000   0.000000
    32  H    0.000000   0.000000   0.000000   0.000000   0.000000   0.000000
    33  H    0.000000   0.000000   0.000000   0.000000   0.000000   0.000000
              7          8          9         10         11         12
     1  C    0.268428  -0.050400  -0.048851  -0.044530   0.271849  -0.050504
     2  C   -0.041741  -0.003268   0.004053  -0.001052  -0.046232   0.004079
     3  C   -0.043364   0.003992  -0.003052  -0.000051  -0.042372  -0.003163
     4  H    0.001287   0.000044  -0.000026  -0.000015  -0.002919   0.000023
     5  H    0.001390  -0.000036   0.000035  -0.000031  -0.002488   0.000580
     6  H   -0.002966   0.000003   0.000607   0.000693   0.001385   0.000058
     7  C    5.305344   0.379027   0.380967   0.384383  -0.069108  -0.000989
     8  H    0.379027   0.518642  -0.027494  -0.024606  -0.001046  -0.000133
     9  H    0.380967  -0.027494   0.512642  -0.024679  -0.001520   0.002141
    10  H    0.384383  -0.024606  -0.024679   0.504441   0.002869  -0.000030
    11  C   -0.069108  -0.001046  -0.001520   0.002869   5.289686   0.379169
    12  H   -0.000989  -0.000133   0.002141  -0.000030   0.379169   0.518811
    13  H   -0.001009   0.002145  -0.000107  -0.000030   0.379831  -0.027844
    14  H    0.003003  -0.000039  -0.000038  -0.000064   0.384996  -0.024724
    15  C   -0.009940   0.001088   0.000017  -0.001063   0.001913  -0.000047
    16  H    0.001420   0.000146  -0.000027  -0.000455   0.000082  -0.000003
    17  H   -0.001636  -0.000027   0.000040   0.001180  -0.000043   0.000002
    18  C    0.000122  -0.000023   0.000000   0.000076  -0.000038   0.000000
    19  H   -0.000006   0.000000   0.000000  -0.000001  -0.000002   0.000000
    20  H    0.000004   0.000000   0.000000  -0.000003   0.000001   0.000000
    21  C    0.000001   0.000001   0.000000  -0.000005   0.000000   0.000000
    22  H    0.000000   0.000000   0.000000   0.000000   0.000000   0.000000
    23  H   -0.000001   0.000000   0.000000  -0.000001   0.000000   0.000000
    24  C    0.000000   0.000000   0.000000   0.000000   0.000000   0.000000
    25  H    0.000000   0.000000   0.000000   0.000000   0.000000   0.000000
    26  H    0.000000   0.000000   0.000000   0.000000   0.000000   0.000000
    27  C    0.000000   0.000000   0.000000   0.000000   0.000000   0.000000
    28  H    0.000000   0.000000   0.000000   0.000000   0.000000   0.000000
    29  H    0.000000   0.000000   0.000000   0.000000   0.000000   0.000000
    30  C    0.000000   0.000000   0.000000   0.000000   0.000000   0.000000
    31  H    0.000000   0.000000   0.000000   0.000000   0.000000   0.000000
    32  H    0.000000   0.000000   0.000000   0.000000   0.000000   0.000000
    33  H    0.000000   0.000000   0.000000   0.000000   0.000000   0.000000
             13         14         15         16         17         18
     1  C   -0.050402  -0.046535  -0.046678  -0.006247   0.004097   0.003399
     2  C   -0.003154  -0.000112   0.239925  -0.049244  -0.045916  -0.077270
     3  C    0.003940  -0.000213  -0.049994   0.004346  -0.004080   0.000637
     4  H    0.000555   0.001063  -0.032620   0.000570   0.002189  -0.004770
     5  H    0.000008   0.000878   0.001662  -0.000044   0.000058  -0.000023
     6  H   -0.000036  -0.000021  -0.003288   0.000002   0.002235   0.000334
     7  C   -0.001009   0.003003  -0.009940   0.001420  -0.001636   0.000122
     8  H    0.002145  -0.000039   0.001088   0.000146  -0.000027  -0.000023
     9  H   -0.000107  -0.000038   0.000017  -0.000027   0.000040   0.000000
    10  H   -0.000030  -0.000064  -0.001063  -0.000455   0.001180   0.000076
    11  C    0.379831   0.384996   0.001913   0.000082  -0.000043  -0.000038
    12  H   -0.027844  -0.024724  -0.000047  -0.000003   0.000002   0.000000
    13  H    0.518402  -0.024574   0.000055  -0.000006   0.000000  -0.000002
    14  H   -0.024574   0.509061  -0.000017   0.000003   0.000000  -0.000001
    15  C    0.000055  -0.000017   5.424847   0.390096   0.390104   0.253446
    16  H   -0.000006   0.000003   0.390096   0.518677  -0.026495  -0.047469
    17  H    0.000000   0.000000   0.390104  -0.026495   0.512546  -0.043313
    18  C   -0.000002  -0.000001   0.253446  -0.047469  -0.043313   5.466071
    19  H    0.000000   0.000000  -0.046611  -0.001637   0.003228   0.389225
    20  H    0.000000   0.000000  -0.045932   0.003346  -0.001677   0.388155
    21  C    0.000000   0.000000  -0.081087  -0.001088  -0.001183   0.252027
    22  H    0.000000   0.000000  -0.001148   0.002372   0.000100  -0.046521
    23  H    0.000000   0.000000  -0.001097   0.000094   0.002179  -0.046120
    24  C    0.000000   0.000000   0.004540  -0.000031  -0.000022  -0.081110
    25  H    0.000000   0.000000  -0.000027   0.000006  -0.000001  -0.001376
    26  H    0.000000   0.000000  -0.000029  -0.000001   0.000006  -0.001142
    27  C    0.000000   0.000000  -0.000092   0.000000   0.000000   0.004538
    28  H    0.000000   0.000000   0.000000   0.000000  -0.000001  -0.000035
    29  H    0.000000   0.000000   0.000000  -0.000001   0.000000  -0.000036
    30  C    0.000000   0.000000   0.000000   0.000000   0.000000  -0.000097
    31  H    0.000000   0.000000   0.000000   0.000000   0.000000   0.000000
    32  H    0.000000   0.000000   0.000000   0.000000   0.000000   0.000001
    33  H    0.000000   0.000000   0.000000   0.000000   0.000000   0.000000
             19         20         21         22         23         24
     1  C    0.000054  -0.000156  -0.000073   0.000000   0.000000   0.000000
     2  C   -0.001792  -0.000838   0.004664  -0.000035  -0.000026  -0.000094
     3  C    0.000010   0.000868  -0.000014  -0.000001   0.000003   0.000000
     4  H    0.002641   0.000333   0.000082   0.000005   0.000000  -0.000003
     5  H    0.000001  -0.000028   0.000000   0.000000   0.000000   0.000000
     6  H    0.000002   0.000058  -0.000011   0.000000  -0.000001   0.000000
     7  C   -0.000006   0.000004   0.000001   0.000000  -0.000001   0.000000
     8  H    0.000000   0.000000   0.000001   0.000000   0.000000   0.000000
     9  H    0.000000   0.000000   0.000000   0.000000   0.000000   0.000000
    10  H   -0.000001  -0.000003  -0.000005   0.000000  -0.000001   0.000000
    11  C   -0.000002   0.000001   0.000000   0.000000   0.000000   0.000000
    12  H    0.000000   0.000000   0.000000   0.000000   0.000000   0.000000
    13  H    0.000000   0.000000   0.000000   0.000000   0.000000   0.000000
    14  H    0.000000   0.000000   0.000000   0.000000   0.000000   0.000000
    15  C   -0.046611  -0.045932  -0.081087  -0.001148  -0.001097   0.004540
    16  H   -0.001637   0.003346  -0.001088   0.002372   0.000094  -0.000031
    17  H    0.003228  -0.001677  -0.001183   0.000100   0.002179  -0.000022
    18  C    0.389225   0.388155   0.252027  -0.046521  -0.046120  -0.081110
    19  H    0.520155  -0.025445  -0.046559  -0.001571   0.003266  -0.001294
    20  H   -0.025445   0.511827  -0.045734   0.003231  -0.001688  -0.001131
    21  C   -0.046559  -0.045734   5.470883   0.388244   0.388037   0.253146
    22  H   -0.001571   0.003231   0.388244   0.519259  -0.025890  -0.046089
    23  H    0.003266  -0.001688   0.388037  -0.025890   0.519542  -0.045924
    24  C   -0.001294  -0.001131   0.253146  -0.046089  -0.045924   5.475973
    25  H    0.002256   0.000115  -0.046113  -0.001600   0.003265   0.387785
    26  H    0.000113   0.002123  -0.046032   0.003266  -0.001677   0.387717
    27  C   -0.000029  -0.000031  -0.080882  -0.001291  -0.001232   0.251808
    28  H   -0.000001   0.000006  -0.001174   0.000103   0.002244  -0.047164
    29  H    0.000006  -0.000001  -0.001205   0.002279   0.000102  -0.047151
    30  C    0.000000   0.000000   0.004566  -0.000028  -0.000031  -0.088063
    31  H   -0.000001   0.000000  -0.000043   0.000005   0.000000  -0.001919
    32  H    0.000000   0.000000  -0.000088   0.000001   0.000001   0.004137
    33  H    0.000000  -0.000001  -0.000043   0.000000   0.000005  -0.001899
             25         26         27         28         29         30
     1  C    0.000000   0.000000   0.000000   0.000000   0.000000   0.000000
     2  C    0.000000   0.000000   0.000000   0.000000   0.000000   0.000000
     3  C    0.000000   0.000000   0.000000   0.000000   0.000000   0.000000
     4  H   -0.000001   0.000000   0.000000   0.000000   0.000000   0.000000
     5  H    0.000000   0.000000   0.000000   0.000000   0.000000   0.000000
     6  H    0.000000   0.000000   0.000000   0.000000   0.000000   0.000000
     7  C    0.000000   0.000000   0.000000   0.000000   0.000000   0.000000
     8  H    0.000000   0.000000   0.000000   0.000000   0.000000   0.000000
     9  H    0.000000   0.000000   0.000000   0.000000   0.000000   0.000000
    10  H    0.000000   0.000000   0.000000   0.000000   0.000000   0.000000
    11  C    0.000000   0.000000   0.000000   0.000000   0.000000   0.000000
    12  H    0.000000   0.000000   0.000000   0.000000   0.000000   0.000000
    13  H    0.000000   0.000000   0.000000   0.000000   0.000000   0.000000
    14  H    0.000000   0.000000   0.000000   0.000000   0.000000   0.000000
    15  C   -0.000027  -0.000029  -0.000092   0.000000   0.000000   0.000000
    16  H    0.000006  -0.000001   0.000000   0.000000  -0.000001   0.000000
    17  H   -0.000001   0.000006   0.000000  -0.000001   0.000000   0.000000
    18  C   -0.001376  -0.001142   0.004538  -0.000035  -0.000036  -0.000097
    19  H    0.002256   0.000113  -0.000029  -0.000001   0.000006   0.000000
    20  H    0.000115   0.002123  -0.000031   0.000006  -0.000001   0.000000
    21  C   -0.046113  -0.046032  -0.080882  -0.001174  -0.001205   0.004566
    22  H   -0.001600   0.003266  -0.001291   0.000103   0.002279  -0.000028
    23  H    0.003265  -0.001677  -0.001232   0.002244   0.000102  -0.000031
    24  C    0.387785   0.387717   0.251808  -0.047164  -0.047151  -0.088063
    25  H    0.519724  -0.025885  -0.046126   0.003309  -0.001736  -0.000999
    26  H   -0.025885   0.519132  -0.046079  -0.001738   0.003305  -0.000996
    27  C   -0.046126  -0.046079   5.456317   0.388667   0.388661   0.253037
    28  H    0.003309  -0.001738   0.388667   0.519259  -0.025984  -0.043668
    29  H   -0.001736   0.003305   0.388661  -0.025984   0.519247  -0.043674
    30  C   -0.000999  -0.000996   0.253037  -0.043668  -0.043674   5.367756
    31  H    0.002563   0.000043  -0.047090   0.003322  -0.001868   0.379578
    32  H   -0.000029  -0.000029  -0.043790  -0.001569  -0.001576   0.381535
    33  H    0.000043   0.002555  -0.047076  -0.001877   0.003321   0.379576
             31         32         33
     1  C    0.000000   0.000000   0.000000
     2  C    0.000000   0.000000   0.000000
     3  C    0.000000   0.000000   0.000000
     4  H    0.000000   0.000000   0.000000
     5  H    0.000000   0.000000   0.000000
     6  H    0.000000   0.000000   0.000000
     7  C    0.000000   0.000000   0.000000
     8  H    0.000000   0.000000   0.000000
     9  H    0.000000   0.000000   0.000000
    10  H    0.000000   0.000000   0.000000
    11  C    0.000000   0.000000   0.000000
    12  H    0.000000   0.000000   0.000000
    13  H    0.000000   0.000000   0.000000
    14  H    0.000000   0.000000   0.000000
    15  C    0.000000   0.000000   0.000000
    16  H    0.000000   0.000000   0.000000
    17  H    0.000000   0.000000   0.000000
    18  C    0.000000   0.000001   0.000000
    19  H   -0.000001   0.000000   0.000000
    20  H    0.000000   0.000000  -0.000001
    21  C   -0.000043  -0.000088  -0.000043
    22  H    0.000005   0.000001   0.000000
    23  H    0.000000   0.000001   0.000005
    24  C   -0.001919   0.004137  -0.001899
    25  H    0.002563  -0.000029   0.000043
    26  H    0.000043  -0.000029   0.002555
    27  C   -0.047090  -0.043790  -0.047076
    28  H    0.003322  -0.001569  -0.001877
    29  H   -0.001868  -0.001576   0.003321
    30  C    0.379578   0.381535   0.379576
    31  H    0.518599  -0.025529  -0.026816
    32  H   -0.025529   0.513374  -0.025517
    33  H   -0.026816  -0.025517   0.518466
 Mulliken atomic charges:
              1
     1  C   -0.167747
     2  C   -0.251052
     3  C   -0.355788
     4  H    0.212469
     5  H    0.208297
     6  H    0.204950
     7  C   -0.554616
     8  H    0.201984
     9  H    0.205294
    10  H    0.202977
    11  C   -0.546013
    12  H    0.202574
    13  H    0.202231
    14  H    0.197333
    15  C   -0.388025
    16  H    0.211588
    17  H    0.206432
    18  C   -0.408685
    19  H    0.203990
    20  H    0.212598
    21  C   -0.410317
    22  H    0.205311
    23  H    0.204951
    24  C   -0.403214
    25  H    0.204827
    26  H    0.205348
    27  C   -0.429311
    28  H    0.206301
    29  H    0.206310
    30  C   -0.588493
    31  H    0.199154
    32  H    0.199079
    33  H    0.199263
 Sum of Mulliken atomic charges =   0.00000
 Mulliken charges with hydrogens summed into heavy atoms:
              1
     1  C   -0.167747
     2  C   -0.038583
     3  C    0.057460
     7  C    0.055639
    11  C    0.056125
    15  C    0.029995
    18  C    0.007902
    21  C   -0.000055
    24  C    0.006961
    27  C   -0.016700
    30  C    0.009004
 Sum of Mulliken charges with hydrogens summed into heavy atoms =   0.00000
 Electronic spatial extent (au):  <R**2>=           4078.2475
 Charge=              0.0000 electrons
 Dipole moment (field-independent basis, Debye):
    X=              0.0120    Y=              0.1022    Z=             -0.0829  Tot=              0.1321
 Quadrupole moment (field-independent basis, Debye-Ang):
   XX=            -76.6321   YY=            -74.1528   ZZ=            -73.3791
   XY=              0.3284   XZ=              0.3450   YZ=              0.4493
 Traceless Quadrupole moment (field-independent basis, Debye-Ang):
   XX=             -1.9108   YY=              0.5686   ZZ=              1.3422
   XY=              0.3284   XZ=              0.3450   YZ=              0.4493
 Octapole moment (field-independent basis, Debye-Ang**2):
  XXX=            -10.6550  YYY=             -2.4342  ZZZ=              0.1826  XYY=             -1.9668
  XXY=              2.9962  XXZ=             -0.9422  XZZ=              2.9918  YZZ=              1.0103
  YYZ=             -0.5342  XYZ=             -0.0877
 Hexadecapole moment (field-independent basis, Debye-Ang**3):
 XXXX=          -5237.6793 YYYY=           -371.4557 ZZZZ=           -231.7863 XXXY=             17.0485
 XXXZ=              5.3630 YYYX=              9.8878 YYYZ=             -0.0713 ZZZX=              0.9059
 ZZZY=             -0.2292 XXYY=           -913.1732 XXZZ=           -892.2823 YYZZ=            -95.9383
 XXYZ=             -2.9548 YYXZ=             -0.3935 ZZXY=             -4.6771
 N-N= 6.152518027811D+02 E-N=-2.222496172364D+03  KE= 4.267669702381D+02
 1\1\GINC-NODE02\SP\RHF\3-21G\C11H22\SC4102.04\26-Jun-2022\0\\# hf/3-21
 g geom=connectivity\\mol_4\\0,1\C,0,6.62774853,1.82617469,-0.5717003\C
 ,0,8.12886353,1.82617469,-0.5717003\C,0,7.37827853,3.12614969,-0.57170
 03\H,0,8.66542453,1.51640769,0.3421877\H,0,7.37805553,3.74567769,0.342
 2437\H,0,7.37805553,3.74567769,-1.4856443\C,0,5.87932142,1.39397085,-1
 .84632052\H,0,5.78133889,0.32853547,-1.85844031\H,0,4.90756195,1.84167
 184,-1.85845992\H,0,6.42905261,1.7114079,-2.70767372\C,0,5.87932142,1.
 39397085,0.70291991\H,0,4.90755738,1.84166208,0.71505333\H,0,5.7813496
 3,0.32853455,0.7150457\H,0,6.42904644,1.71141857,1.56427311\C,0,8.8772
 5707,1.39411268,-1.84638832\H,0,8.62144266,0.38284528,-2.08471001\H,0,
 8.59816073,2.03332175,-2.6578173\C,0,10.39552182,1.49753673,-1.6102197
 \H,0,10.67289617,0.86694041,-0.79149401\H,0,10.65291619,2.51095632,-1.
 38299979\C,0,11.14411882,1.04998152,-2.87943082\H,0,10.8785771,0.04004
 028,-3.11268236\H,0,10.87481834,1.68719291,-3.69572667\C,0,12.66248835
 ,1.13887887,-2.63807793\H,0,12.93078482,0.50690057,-1.81739502\H,0,12.
 92902249,2.15008572,-2.41153816\C,0,13.41110105,0.68197068,-3.90394283
 \H,0,13.14261211,1.31379358,-4.72468244\H,0,13.14475898,-0.32931883,-4
 .13033946\C,0,14.92947017,0.77121081,-3.66271391\H,0,15.19782919,0.140
 06379,-2.84141197\H,0,15.44961119,0.45291347,-4.54194091\H,0,15.195940
 46,1.7826597,-3.43718179\\Version=EM64L-G09RevC.01\State=1-A\HF=-426.9
 492839\RMSD=6.190e-09\Dipole=-0.0106772,-0.0448254,-0.0240424\Quadrupo
 le=-1.3136321,0.6400623,0.6735698,0.2264763,0.4615194,-0.5239184\PG=C0
 1 [X(C11H22)]\\@


 IF AT FIRST YOU DON'T SUCCEED, TRY, TRY AGAIN.
 THEN GIVE UP;
 THERE'S NO USE BEING A DAMN FOOL ABOUT IT.

                                 -- W. C. FIELDS
 Job cpu time:  0 days  0 hours  0 minutes  9.6 seconds.
 File lengths (MBytes):  RWF=     15 Int=      0 D2E=      0 Chk=      3 Scr=      1
 Normal termination of Gaussian 09 at Sun Jun 26 00:32:46 2022.
