 Entering Gaussian System, Link 0=g09
 Input=/home/iiit/sc4102.04/Tut_assignment_5/Problem_1/Mol_2/mol_2.com
 Output=/home/iiit/sc4102.04/Tut_assignment_5/Problem_1/Mol_2/mol_2.log
 Initial command:
 /global/g09-revC/l1.exe /scratch/Gau-18191.inp -scrdir=/scratch/
 Entering Link 1 = /global/g09-revC/l1.exe PID=     18193.
  
 Copyright (c) 1988,1990,1992,1993,1995,1998,2003,2009,2011,
            Gaussian, Inc.  All Rights Reserved.
  
 This is part of the Gaussian(R) 09 program.  It is based on
 the Gaussian(R) 03 system (copyright 2003, Gaussian, Inc.),
 the Gaussian(R) 98 system (copyright 1998, Gaussian, Inc.),
 the Gaussian(R) 94 system (copyright 1995, Gaussian, Inc.),
 the Gaussian 92(TM) system (copyright 1992, Gaussian, Inc.),
 the Gaussian 90(TM) system (copyright 1990, Gaussian, Inc.),
 the Gaussian 88(TM) system (copyright 1988, Gaussian, Inc.),
 the Gaussian 86(TM) system (copyright 1986, Carnegie Mellon
 University), and the Gaussian 82(TM) system (copyright 1983,
 Carnegie Mellon University). Gaussian is a federally registered
 trademark of Gaussian, Inc.
  
 This software contains proprietary and confidential information,
 including trade secrets, belonging to Gaussian, Inc.
  
 This software is provided under written license and may be
 used, copied, transmitted, or stored only in accord with that
 written license.
  
 The following legend is applicable only to US Government
 contracts under FAR:
  
                    RESTRICTED RIGHTS LEGEND
  
 Use, reproduction and disclosure by the US Government is
 subject to restrictions as set forth in subparagraphs (a)
 and (c) of the Commercial Computer Software - Restricted
 Rights clause in FAR 52.227-19.
  
 Gaussian, Inc.
 340 Quinnipiac St., Bldg. 40, Wallingford CT 06492
  
  
 ---------------------------------------------------------------
 Warning -- This program may not be used in any manner that
 competes with the business of Gaussian, Inc. or will provide
 assistance to any competitor of Gaussian, Inc.  The licensee
 of this program is prohibited from giving any competitor of
 Gaussian, Inc. access to this program.  By using this program,
 the user acknowledges that Gaussian, Inc. is engaged in the
 business of creating and licensing software in the field of
 computational chemistry and represents and warrants to the
 licensee that it is not a competitor of Gaussian, Inc. and that
 it will not use this program in any manner prohibited above.
 ---------------------------------------------------------------
  

 Cite this work as:
 Gaussian 09, Revision C.01,
 M. J. Frisch, G. W. Trucks, H. B. Schlegel, G. E. Scuseria, 
 M. A. Robb, J. R. Cheeseman, G. Scalmani, V. Barone, B. Mennucci, 
 G. A. Petersson, H. Nakatsuji, M. Caricato, X. Li, H. P. Hratchian, 
 A. F. Izmaylov, J. Bloino, G. Zheng, J. L. Sonnenberg, M. Hada, 
 M. Ehara, K. Toyota, R. Fukuda, J. Hasegawa, M. Ishida, T. Nakajima, 
 Y. Honda, O. Kitao, H. Nakai, T. Vreven, J. A. Montgomery, Jr., 
 J. E. Peralta, F. Ogliaro, M. Bearpark, J. J. Heyd, E. Brothers, 
 K. N. Kudin, V. N. Staroverov, T. Keith, R. Kobayashi, J. Normand, 
 K. Raghavachari, A. Rendell, J. C. Burant, S. S. Iyengar, J. Tomasi, 
 M. Cossi, N. Rega, J. M. Millam, M. Klene, J. E. Knox, J. B. Cross, 
 V. Bakken, C. Adamo, J. Jaramillo, R. Gomperts, R. E. Stratmann, 
 O. Yazyev, A. J. Austin, R. Cammi, C. Pomelli, J. W. Ochterski, 
 R. L. Martin, K. Morokuma, V. G. Zakrzewski, G. A. Voth, 
 P. Salvador, J. J. Dannenberg, S. Dapprich, A. D. Daniels, 
 O. Farkas, J. B. Foresman, J. V. Ortiz, J. Cioslowski, 
 and D. J. Fox, Gaussian, Inc., Wallingford CT, 2010.
 
 ******************************************
 Gaussian 09:  EM64L-G09RevC.01 23-Sep-2011
                26-Jun-2022 
 ******************************************
 %chk=mol_2.chk
 ----------------------------
 # hf/3-21g geom=connectivity
 ----------------------------
 1/38=1,57=2/1;
 2/12=2,17=6,18=5,40=1/2;
 3/5=5,11=9,16=1,25=1,30=1/1,2,3;
 4//1;
 5/5=2,38=5/2;
 6/7=2,8=2,9=2,10=2,28=1/1;
 99/5=1,9=1/99;
 -----
 mol_2
 -----
 Charge =  0 Multiplicity = 1
 Symbolic Z-Matrix:
 C                    -2.76744  -1.4186    0. 
 C                    -1.24558  -1.4186    0. 
 C                    -0.77681   0.02926   0. 
 C                    -2.00455   0.91883  -0.13319 
 C                    -3.23665   0.02572  -0.10359 
 H                    -3.1594   -2.02105  -0.85751 
 H                    -3.15756  -1.88902   0.9375 
 H                    -0.85696  -1.9532   -0.90328 
 H                    -0.85222  -1.95934   0.89684 
 H                    -0.22988   0.26095   0.94859 
 H                    -0.06485   0.21244  -0.84322 
 H                    -1.96543   1.49641  -1.09092 
 H                    -3.84839   0.17334  -1.02879 
 C                    -2.05366   1.94576   1.01338 
 H                    -2.92371   2.5592    0.90573 
 H                    -2.09339   1.43183   1.95103 
 C                    -0.79335   2.82945   0.96535 
 H                    -0.00209   2.35184   1.50451 
 H                    -0.49611   2.97176  -0.05264 
 C                    -1.09967   4.19574   1.60646 
 H                    -1.47417   4.04856   2.59792 
 H                    -1.83367   4.70821   1.02036 
 C                     0.18943   5.03628   1.66416 
 H                     0.91752   4.53189   2.26447 
 H                     0.57334   5.16892   0.67425 
 C                    -0.12193   6.41185   2.28259 
 H                     0.77489   6.99369   2.32808 
 H                    -0.84567   6.91866   1.67906 
 H                    -0.51135   6.27895   3.27031 
 C                    -4.13446   0.38601   1.09463 
 H                    -4.47052   1.39718   0.99717 
 H                    -4.97942  -0.27006   1.11719 
 H                    -3.57723   0.28125   2.00205 
 
                          Input orientation:                          
 ---------------------------------------------------------------------
 Center     Atomic      Atomic             Coordinates (Angstroms)
 Number     Number       Type             X           Y           Z
 ---------------------------------------------------------------------
      1          6           0       -2.767442   -1.418605    0.000000
      2          6           0       -1.245584   -1.418605    0.000000
      3          6           0       -0.776811    0.029260    0.000000
      4          6           0       -2.004551    0.918828   -0.133186
      5          6           0       -3.236648    0.025715   -0.103590
      6          1           0       -3.159404   -2.021050   -0.857508
      7          1           0       -3.157557   -1.889016    0.937504
      8          1           0       -0.856957   -1.953203   -0.903280
      9          1           0       -0.852217   -1.959337    0.896837
     10          1           0       -0.229876    0.260953    0.948588
     11          1           0       -0.064850    0.212436   -0.843216
     12          1           0       -1.965430    1.496413   -1.090922
     13          1           0       -3.848394    0.173337   -1.028793
     14          6           0       -2.053658    1.945758    1.013376
     15          1           0       -2.923714    2.559203    0.905728
     16          1           0       -2.093392    1.431831    1.951033
     17          6           0       -0.793351    2.829453    0.965346
     18          1           0       -0.002095    2.351841    1.504512
     19          1           0       -0.496107    2.971758   -0.052640
     20          6           0       -1.099671    4.195741    1.606459
     21          1           0       -1.474172    4.048563    2.597916
     22          1           0       -1.833672    4.708213    1.020358
     23          6           0        0.189426    5.036277    1.664161
     24          1           0        0.917518    4.531892    2.264475
     25          1           0        0.573337    5.168916    0.674253
     26          6           0       -0.121934    6.411851    2.282588
     27          1           0        0.774888    6.993694    2.328078
     28          1           0       -0.845673    6.918665    1.679063
     29          1           0       -0.511350    6.278951    3.270309
     30          6           0       -4.134458    0.386010    1.094627
     31          1           0       -4.470523    1.397179    0.997170
     32          1           0       -4.979420   -0.270061    1.117185
     33          1           0       -3.577232    0.281247    2.002055
 ---------------------------------------------------------------------
                    Distance matrix (angstroms):
                    1          2          3          4          5
     1  C    0.000000
     2  C    1.521858   0.000000
     3  C    2.461488   1.521861   0.000000
     4  C    2.462384   2.461171   1.521977   0.000000
     5  C    1.522152   2.461936   2.462020   1.522035   0.000000
     6  H    1.118881   2.181964   3.258196   3.240557   2.182569
     7  H    1.119102   2.180789   3.197913   3.218662   2.180900
     8  H    2.179831   1.119259   2.180022   3.187253   3.196647
     9  H    2.182841   1.118680   2.182778   3.266903   3.259877
    10  H    3.187472   2.179999   1.119213   2.180024   3.194228
    11  H    3.267310   2.182989   1.118685   2.183019   3.262241
    12  H    3.214135   3.194623   2.180703   1.119104   2.180315
    13  H    2.182006   3.219831   3.242498   2.181198   1.118940
    14  C    3.585436   3.605392   2.515995   1.540000   2.516672
    15  H    4.082612   4.411283   3.439498   2.148263   2.745034
    16  H    3.519355   3.556725   2.739912   2.148263   2.739648
    17  C    4.782774   4.379772   2.961967   2.514809   3.869531
    18  H    4.911920   4.245713   2.873695   2.957264   4.296415
    19  H    4.943381   4.454185   2.956325   2.548806   4.023969
    20  C    6.073142   5.841479   4.477110   3.818813   4.987991
    21  H    6.189640   6.057338   4.836350   4.187536   5.156332
    22  H    6.280999   6.238980   4.904150   3.964757   5.015714
    23  C    7.292325   6.818665   5.364072   4.999738   6.322077
    24  H    7.356302   6.724230   5.317169   5.228909   6.570423
    25  H    7.416930   6.867206   5.356638   5.035942   6.447754
    26  C    8.574670   8.233398   6.810032   6.289158   7.495200
    27  H    9.419916   8.959298   7.505402   7.119487   8.399890
    28  H    8.719089   8.514061   7.091395   6.373796   7.510484
    29  H    8.662403   8.395617   7.058613   6.522602   7.610085
    30  C    2.514672   3.577770   3.549545   2.515537   1.540000
    31  H    3.438527   4.395818   4.063134   2.754550   2.148263
    32  H    2.731319   4.063101   4.358856   3.439002   2.148263
    33  H    2.748359   3.512023   3.451678   2.727469   2.148263
                    6          7          8          9         10
     6  H    0.000000
     7  H    1.799862   0.000000
     8  H    2.303901   2.947095   0.000000
     9  H    2.899077   2.306771   1.800134   0.000000
    10  H    4.129365   3.632328   2.953834   2.306442   0.000000
    11  H    3.816403   4.141485   2.306737   2.892115   1.800041
    12  H    3.721908   4.122719   3.628191   4.139159   2.949256
    13  H    2.306378   2.932044   3.672414   4.151316   4.124486
    14  C    4.523101   3.991220   4.506391   4.087396   2.483736
    15  H    4.913580   4.454475   5.282594   4.970753   3.541264
    16  H    4.576753   3.631489   4.597209   3.761896   2.418376
    17  C    5.696348   5.277707   5.135134   4.789642   2.629634
    18  H    5.888116   5.316324   5.006161   4.436015   2.175487
    19  H    5.715688   5.629460   5.010892   5.034284   2.902033
    20  C    6.997294   6.458069   6.645841   6.200788   4.083123
    21  H    7.184717   6.391056   6.975710   6.274979   4.314458
    22  H    7.111042   6.729262   7.002058   6.740529   4.728153
    23  C    8.208492   7.725931   7.519275   7.114241   4.846811
    24  H    8.325209   7.719789   7.432354   6.865744   4.613999
    25  H    8.244710   7.987695   7.433635   7.272808   4.980814
    26  C    9.497381   8.940283   8.981322   8.516479   6.294820
    27  H   10.338869   9.813274   9.651505   9.211552   6.945671
    28  H    9.576327   9.136189   9.240057   8.912397   6.725914
    29  H    9.640595   8.897194   9.236159   8.580148   6.456462
    30  C    3.248923   2.480880   4.495060   4.038920   3.909313
    31  H    4.104041   3.539282   5.281536   4.936436   4.390497
    32  H    3.205906   2.443867   4.889780   4.464976   4.782110
    33  H    3.694895   2.453454   4.564388   3.696949   3.509273
                   11         12         13         14         15
    11  H    0.000000
    12  H    2.306981   0.000000
    13  H    3.788294   2.302161   0.000000
    14  C    3.225941   2.153547   3.245459   0.000000
    15  H    4.091359   2.456510   3.207766   1.070000   0.000000
    16  H    3.661930   3.045330   3.680109   1.070000   1.747303
    17  C    3.263493   2.716432   4.512741   1.540000   2.148263
    18  H    3.176919   3.364925   5.094853   2.148263   2.989548
    19  H    2.902559   2.326710   4.474579   2.148263   2.642337
    20  C    4.789413   3.913026   5.538932   2.514809   2.548806
    21  H    5.342607   4.512464   5.814407   2.695990   2.680087
    22  H    5.178190   3.845845   5.368726   2.771210   2.412379
    23  C    5.442521   4.976396   6.870529   3.873791   4.050031
    24  H    5.411145   5.365091   7.249588   4.132944   4.526892
    25  H    5.222708   4.800881   6.885338   4.171913   4.369616
    26  C    6.943101   6.240239   7.985663   5.028763   4.958690
    27  H    7.533108   7.029865   8.897224   5.933867   5.947053
    28  H    7.207293   6.190919   7.864366   5.160637   4.890931
    29  H    7.343231   6.633803   8.179037   5.123380   5.024665
    30  C    4.510773   3.273271   2.153132   2.601757   2.494865
    31  H    4.919410   3.262739   2.447316   2.478394   1.936823
    32  H    5.313095   4.132833   2.465978   3.671609   3.503624
    33  H    4.520744   3.693378   3.044866   2.463606   2.611150
                   16         17         18         19         20
    16  H    0.000000
    17  C    2.148263   0.000000
    18  H    2.327944   1.070000   0.000000
    19  H    2.989548   1.070000   1.747303   0.000000
    20  C    2.957264   1.540000   2.148263   2.148263   0.000000
    21  H    2.765715   2.148263   2.498282   3.023503   1.070000
    22  H    3.415888   2.148263   3.023503   2.440427   1.070000
    23  C    4.276165   2.514809   2.695991   2.771209   1.540000
    24  H    4.332921   2.741004   2.485127   3.130714   2.148263
    25  H    4.765230   2.725006   2.992719   2.549429   2.148263
    26  C    5.366300   3.875501   4.135632   4.174630   2.514809
    27  H    6.269252   4.653742   4.777946   4.843472   3.444306
    28  H    5.633482   4.151359   4.647362   4.324242   2.735708
    29  H    5.266680   4.158294   4.335847   4.688256   2.730253
    30  C    2.448085   4.141271   4.594444   4.608678   4.897546
    31  H    2.561603   3.946393   4.597350   4.401975   4.423328
    32  H    3.452665   5.210875   5.638986   5.654908   5.935927
    33  H    1.878358   3.913836   4.161311   4.577548   4.649523
                   21         22         23         24         25
    21  H    0.000000
    22  H    1.747303   0.000000
    23  C    2.148263   2.148263   0.000000
    24  H    2.462716   3.024560   1.070000   0.000000
    25  H    3.024561   2.475022   1.070000   1.747303   0.000000
    26  C    2.741005   2.725006   1.540000   2.148263   2.148263
    27  H    3.715492   3.706500   2.148263   2.466751   2.470947
    28  H    3.078438   2.509209   2.148263   3.024604   2.466750
    29  H    2.520668   3.045986   2.148263   2.470947   3.024604
    30  C    4.769831   4.896996   6.375368   6.639227   6.724302
    31  H    4.309333   4.232785   5.950045   6.361091   6.306410
    32  H    5.755853   5.889679   7.427878   7.690833   7.785357
    33  H    4.355523   4.858164   6.075541   6.191900   6.548251
                   26         27         28         29         30
    26  C    0.000000
    27  H    1.070000   0.000000
    28  H    1.070000   1.747303   0.000000
    29  H    1.070000   1.747303   1.747303   0.000000
    30  C    7.336372   8.323735   7.337114   7.251706   0.000000
    31  H    6.760878   7.785027   6.640130   6.683855   1.070000
    32  H    8.342739   9.345612   8.311519   8.215178   1.070000
    33  H    7.042875   8.006509   7.184779   6.854236   1.070000
                   31         32         33
    31  H    0.000000
    32  H    1.747303   0.000000
    33  H    1.747303   1.747303   0.000000
 Stoichiometry    C11H22
 Framework group  C1[X(C11H22)]
 Deg. of freedom    93
 Full point group                 C1      NOp   1
 Largest Abelian subgroup         C1      NOp   1
 Largest concise Abelian subgroup C1      NOp   1
                         Standard orientation:                         
 ---------------------------------------------------------------------
 Center     Atomic      Atomic             Coordinates (Angstroms)
 Number     Number       Type             X           Y           Z
 ---------------------------------------------------------------------
      1          6           0        3.493637   -0.017778   -0.131628
      2          6           0        2.980976   -1.428183   -0.384592
      3          6           0        1.514280   -1.473252    0.018933
      4          6           0        1.158837   -0.131125    0.642449
      5          6           0        2.373410    0.778316    0.522796
      6          1           0        4.396174   -0.041434    0.529251
      7          1           0        3.803276    0.463136   -1.093519
      8          1           0        3.571290   -2.169019    0.211589
      9          1           0        3.100967   -1.702948   -1.462345
     10          1           0        0.870679   -1.669039   -0.875541
     11          1           0        1.331025   -2.304959    0.744285
     12          1           0        0.875888   -0.263235    1.717102
     13          1           0        2.689805    1.142310    1.532464
     14          6           0       -0.054983    0.491263   -0.072304
     15          1           0       -0.288049    1.434340    0.376234
     16          1           0        0.175919    0.635794   -1.107048
     17          6           0       -1.265690   -0.451690    0.056641
     18          1           0       -1.242556   -1.172037   -0.734223
     19          1           0       -1.226251   -0.955881    0.999581
     20          6           0       -2.566456    0.367774   -0.033289
     21          1           0       -2.568476    0.935296   -0.940380
     22          1           0       -2.628022    1.032124    0.803221
     23          6           0       -3.775704   -0.585737   -0.021635
     24          1           0       -3.723202   -1.238708   -0.867668
     25          1           0       -3.764120   -1.165484    0.877620
     26          6           0       -5.077189    0.234945   -0.086580
     27          1           0       -5.917233   -0.427792   -0.084405
     28          1           0       -5.132507    0.883693    0.762518
     29          1           0       -5.086106    0.819150   -0.982976
     30          6           0        2.034476    2.021523   -0.320508
     31          1           0        1.259326    2.579349    0.162060
     32          1           0        2.906220    2.634084   -0.419157
     33          1           0        1.702389    1.714921   -1.290361
 ---------------------------------------------------------------------
 Rotational constants (GHZ):      2.5832761      0.4084823      0.3689086
 Standard basis: 3-21G (6D, 7F)
 There are   143 symmetry adapted basis functions of A   symmetry.
 Integral buffers will be    131072 words long.
 Raffenetti 1 integral format.
 Two-electron integral symmetry is turned on.
   143 basis functions,   231 primitive gaussians,   143 cartesian basis functions
    44 alpha electrons       44 beta electrons
       nuclear repulsion energy       649.8945195587 Hartrees.
 NAtoms=   33 NActive=   33 NUniq=   33 SFac= 1.00D+00 NAtFMM=   60 NAOKFM=F Big=F
 One-electron integrals computed using PRISM.
 NBasis=   143 RedAO= T  NBF=   143
 NBsUse=   143 1.00D-06 NBFU=   143
 Harris functional with IExCor=  205 diagonalized for initial guess.
 ExpMin= 1.83D-01 ExpMax= 1.72D+02 ExpMxC= 1.72D+02 IAcc=1 IRadAn=         1 AccDes= 0.00D+00
 HarFok:  IExCor=  205 AccDes= 0.00D+00 IRadAn=         1 IDoV= 1
 ScaDFX=  1.000000  1.000000  1.000000  1.000000
 FoFCou: FMM=F IPFlag=           0 FMFlag=      100000 FMFlg1=           0
         NFxFlg=           0 DoJE=T BraDBF=F KetDBF=T FulRan=T
         Omega=  0.000000  0.000000  1.000000  0.000000  0.000000 ICntrl=     500 IOpCl=  0
         NMat0=    1 NMatS0=    1 NMatT0=    0 NMatD0=    1 NMtDS0=    0 NMtDT0=    0
         I1Cent=           4 NGrid=           0.
 Petite list used in FoFCou.
 Initial guess orbital symmetries:
       Occupied  (A) (A) (A) (A) (A) (A) (A) (A) (A) (A) (A) (A)
                 (A) (A) (A) (A) (A) (A) (A) (A) (A) (A) (A) (A)
                 (A) (A) (A) (A) (A) (A) (A) (A) (A) (A) (A) (A)
                 (A) (A) (A) (A) (A) (A) (A) (A)
       Virtual   (A) (A) (A) (A) (A) (A) (A) (A) (A) (A) (A) (A)
                 (A) (A) (A) (A) (A) (A) (A) (A) (A) (A) (A) (A)
                 (A) (A) (A) (A) (A) (A) (A) (A) (A) (A) (A) (A)
                 (A) (A) (A) (A) (A) (A) (A) (A) (A) (A) (A) (A)
                 (A) (A) (A) (A) (A) (A) (A) (A) (A) (A) (A) (A)
                 (A) (A) (A) (A) (A) (A) (A) (A) (A) (A) (A) (A)
                 (A) (A) (A) (A) (A) (A) (A) (A) (A) (A) (A) (A)
                 (A) (A) (A) (A) (A) (A) (A) (A) (A) (A) (A) (A)
                 (A) (A) (A)
 The electronic state of the initial guess is 1-A.
 Requested convergence on RMS density matrix=1.00D-08 within 128 cycles.
 Requested convergence on MAX density matrix=1.00D-06.
 Requested convergence on             energy=1.00D-06.
 No special actions if energy rises.
 Integral accuracy reduced to 1.0D-05 until final iterations.
 Initial convergence to 1.0D-05 achieved.  Increase integral accuracy.
 SCF Done:  E(RHF) =  -426.965624491     A.U. after   11 cycles
             Convg  =    0.7350D-08             -V/T =  2.0002

 **********************************************************************

            Population analysis using the SCF density.

 **********************************************************************

 Orbital symmetries:
       Occupied  (A) (A) (A) (A) (A) (A) (A) (A) (A) (A) (A) (A)
                 (A) (A) (A) (A) (A) (A) (A) (A) (A) (A) (A) (A)
                 (A) (A) (A) (A) (A) (A) (A) (A) (A) (A) (A) (A)
                 (A) (A) (A) (A) (A) (A) (A) (A)
       Virtual   (A) (A) (A) (A) (A) (A) (A) (A) (A) (A) (A) (A)
                 (A) (A) (A) (A) (A) (A) (A) (A) (A) (A) (A) (A)
                 (A) (A) (A) (A) (A) (A) (A) (A) (A) (A) (A) (A)
                 (A) (A) (A) (A) (A) (A) (A) (A) (A) (A) (A) (A)
                 (A) (A) (A) (A) (A) (A) (A) (A) (A) (A) (A) (A)
                 (A) (A) (A) (A) (A) (A) (A) (A) (A) (A) (A) (A)
                 (A) (A) (A) (A) (A) (A) (A) (A) (A) (A) (A) (A)
                 (A) (A) (A) (A) (A) (A) (A) (A) (A) (A) (A) (A)
                 (A) (A) (A)
 The electronic state is 1-A.
 Alpha  occ. eigenvalues --  -11.15736 -11.15591 -11.15568 -11.15396 -11.15359
 Alpha  occ. eigenvalues --  -11.14920 -11.14750 -11.14437 -11.14343 -11.14073
 Alpha  occ. eigenvalues --  -11.13724  -1.14042  -1.08313  -1.03166  -1.01085
 Alpha  occ. eigenvalues --   -0.96693  -0.90038  -0.88727  -0.82535  -0.79746
 Alpha  occ. eigenvalues --   -0.75895  -0.72271  -0.67322  -0.65087  -0.62761
 Alpha  occ. eigenvalues --   -0.60675  -0.58815  -0.58270  -0.57625  -0.56113
 Alpha  occ. eigenvalues --   -0.53398  -0.52911  -0.52177  -0.49383  -0.48901
 Alpha  occ. eigenvalues --   -0.47208  -0.46966  -0.46221  -0.45763  -0.45132
 Alpha  occ. eigenvalues --   -0.43542  -0.42781  -0.42197  -0.39899
 Alpha virt. eigenvalues --    0.22691   0.24836   0.26700   0.28915   0.29073
 Alpha virt. eigenvalues --    0.29728   0.31307   0.32216   0.32625   0.33279
 Alpha virt. eigenvalues --    0.34156   0.34508   0.36376   0.36484   0.37174
 Alpha virt. eigenvalues --    0.38033   0.38129   0.38643   0.39665   0.40466
 Alpha virt. eigenvalues --    0.41566   0.42302   0.42546   0.43793   0.44645
 Alpha virt. eigenvalues --    0.47469   0.48438   0.50293   0.52465   0.53406
 Alpha virt. eigenvalues --    0.57078   0.58127   0.61015   0.89474   0.90302
 Alpha virt. eigenvalues --    0.91514   0.92864   0.93514   0.96020   0.98646
 Alpha virt. eigenvalues --    0.99659   1.00688   1.01507   1.04102   1.05355
 Alpha virt. eigenvalues --    1.05906   1.06934   1.08437   1.08828   1.10749
 Alpha virt. eigenvalues --    1.11236   1.13151   1.15086   1.16438   1.18460
 Alpha virt. eigenvalues --    1.21105   1.23408   1.25499   1.25736   1.26695
 Alpha virt. eigenvalues --    1.29005   1.30589   1.30976   1.31673   1.33388
 Alpha virt. eigenvalues --    1.34584   1.37279   1.37947   1.38398   1.39097
 Alpha virt. eigenvalues --    1.40171   1.40496   1.41366   1.42521   1.42784
 Alpha virt. eigenvalues --    1.44496   1.45224   1.46544   1.47328   1.47474
 Alpha virt. eigenvalues --    1.48651   1.49597   1.51291   1.58415   1.65789
 Alpha virt. eigenvalues --    1.70928   1.76150   1.82210   1.90463   1.98272
 Alpha virt. eigenvalues --    2.12326   2.20282   2.28532   2.37566   2.45933
 Alpha virt. eigenvalues --    2.58305   2.77396   2.80111   3.19440
          Condensed to atoms (all electrons):
              1          2          3          4          5          6
     1  C    5.545392   0.212830  -0.087858  -0.092764   0.213193   0.391548
     2  C    0.212830   5.527216   0.214145  -0.089165  -0.089502  -0.041374
     3  C   -0.087858   0.214145   5.551624   0.211685  -0.092753   0.003659
     4  C   -0.092764  -0.089165   0.211685   5.731201   0.194424   0.003505
     5  C    0.213193  -0.089502  -0.092753   0.194424   5.707647  -0.042160
     6  H    0.391548  -0.041374   0.003659   0.003505  -0.042160   0.508838
     7  H    0.396897  -0.044415   0.003369   0.004135  -0.048284  -0.022537
     8  H   -0.043377   0.393293  -0.043614   0.003241   0.003340  -0.005328
     9  H   -0.042756   0.392869  -0.042971   0.003837   0.003848   0.001992
    10  H    0.003303  -0.044124   0.396190  -0.048693   0.004044  -0.000051
    11  H    0.003641  -0.041013   0.392348  -0.042076   0.003468  -0.000112
    12  H    0.002807   0.003284  -0.039703   0.409169  -0.041299  -0.000094
    13  H   -0.038817   0.003340   0.002991  -0.042774   0.408329  -0.004391
    14  C    0.006119   0.005728  -0.082941   0.249895  -0.067226  -0.000067
    15  H    0.000053  -0.000136   0.004129  -0.049237  -0.000942   0.000000
    16  H   -0.000009   0.000281  -0.000730  -0.049692   0.000371  -0.000003
    17  C   -0.000155   0.000077  -0.008489  -0.075790   0.004848   0.000001
    18  H    0.000006   0.000018   0.000666   0.000174  -0.000112   0.000000
    19  H   -0.000005  -0.000007  -0.000183  -0.003970   0.000161   0.000000
    20  C    0.000001  -0.000001   0.000115   0.004504  -0.000090   0.000000
    21  H    0.000000   0.000000  -0.000001   0.000023   0.000001   0.000000
    22  H    0.000000   0.000000  -0.000005  -0.000059  -0.000003   0.000000
    23  C    0.000000   0.000000   0.000002  -0.000103   0.000000   0.000000
    24  H    0.000000   0.000000  -0.000001   0.000000   0.000000   0.000000
    25  H    0.000000   0.000000   0.000000   0.000001   0.000000   0.000000
    26  C    0.000000   0.000000   0.000000   0.000000   0.000000   0.000000
    27  H    0.000000   0.000000   0.000000   0.000000   0.000000   0.000000
    28  H    0.000000   0.000000   0.000000   0.000000   0.000000   0.000000
    29  H    0.000000   0.000000   0.000000   0.000000   0.000000   0.000000
    30  C   -0.084377   0.005583   0.006591  -0.071082   0.254519   0.002880
    31  H    0.004441  -0.000176   0.000054  -0.000486  -0.048943  -0.000086
    32  H   -0.002456   0.000051  -0.000139   0.004049  -0.044101   0.000121
    33  H   -0.000917   0.000241   0.000224  -0.000328  -0.052625  -0.000004
              7          8          9         10         11         12
     1  C    0.396897  -0.043377  -0.042756   0.003303   0.003641   0.002807
     2  C   -0.044415   0.393293   0.392869  -0.044124  -0.041013   0.003284
     3  C    0.003369  -0.043614  -0.042971   0.396190   0.392348  -0.039703
     4  C    0.004135   0.003241   0.003837  -0.048693  -0.042076   0.409169
     5  C   -0.048284   0.003340   0.003848   0.004044   0.003468  -0.041299
     6  H   -0.022537  -0.005328   0.001992  -0.000051  -0.000112  -0.000094
     7  H    0.514067   0.002325  -0.005002  -0.000080  -0.000051  -0.000055
     8  H    0.002325   0.512848  -0.022512   0.002340  -0.005232  -0.000095
     9  H   -0.005002  -0.022512   0.511573  -0.004880   0.001920  -0.000051
    10  H   -0.000080   0.002340  -0.004880   0.512232  -0.022715   0.002253
    11  H   -0.000051  -0.005232   0.001920  -0.022715   0.507323  -0.004443
    12  H   -0.000055  -0.000095  -0.000051   0.002253  -0.004443   0.504982
    13  H    0.002127  -0.000103  -0.000050  -0.000056  -0.000091  -0.004242
    14  C   -0.000200  -0.000053  -0.000165  -0.007228   0.002698  -0.044645
    15  H    0.000002   0.000001   0.000001   0.000283  -0.000084  -0.001104
    16  H   -0.000039  -0.000002  -0.000021   0.001451   0.000006   0.003087
    17  C    0.000003  -0.000001   0.000005  -0.002358   0.000239  -0.003505
    18  H    0.000000   0.000000  -0.000005   0.002458  -0.000163   0.000145
    19  H    0.000000   0.000000   0.000000   0.000231   0.000145   0.003047
    20  C    0.000000   0.000000   0.000000   0.000040   0.000001   0.000041
    21  H    0.000000   0.000000   0.000000  -0.000002   0.000000   0.000000
    22  H    0.000000   0.000000   0.000000  -0.000002   0.000000   0.000026
    23  C    0.000000   0.000000   0.000000   0.000000   0.000000  -0.000003
    24  H    0.000000   0.000000   0.000000  -0.000002   0.000000   0.000000
    25  H    0.000000   0.000000   0.000000   0.000000   0.000000  -0.000001
    26  C    0.000000   0.000000   0.000000   0.000000   0.000000   0.000000
    27  H    0.000000   0.000000   0.000000   0.000000   0.000000   0.000000
    28  H    0.000000   0.000000   0.000000   0.000000   0.000000   0.000000
    29  H    0.000000   0.000000   0.000000   0.000000   0.000000   0.000000
    30  C   -0.007448  -0.000054  -0.000162  -0.000206  -0.000071   0.002964
    31  H    0.000284   0.000001   0.000001   0.000002  -0.000001  -0.000034
    32  H    0.000838   0.000000   0.000002   0.000002   0.000001  -0.000058
    33  H    0.001560  -0.000002  -0.000019  -0.000049  -0.000004  -0.000023
             13         14         15         16         17         18
     1  C   -0.038817   0.006119   0.000053  -0.000009  -0.000155   0.000006
     2  C    0.003340   0.005728  -0.000136   0.000281   0.000077   0.000018
     3  C    0.002991  -0.082941   0.004129  -0.000730  -0.008489   0.000666
     4  C   -0.042774   0.249895  -0.049237  -0.049692  -0.075790   0.000174
     5  C    0.408329  -0.067226  -0.000942   0.000371   0.004848  -0.000112
     6  H   -0.004391  -0.000067   0.000000  -0.000003   0.000001   0.000000
     7  H    0.002127  -0.000200   0.000002  -0.000039   0.000003   0.000000
     8  H   -0.000103  -0.000053   0.000001  -0.000002  -0.000001   0.000000
     9  H   -0.000050  -0.000165   0.000001  -0.000021   0.000005  -0.000005
    10  H   -0.000056  -0.007228   0.000283   0.001451  -0.002358   0.002458
    11  H   -0.000091   0.002698  -0.000084   0.000006   0.000239  -0.000163
    12  H   -0.004242  -0.044645  -0.001104   0.003087  -0.003505   0.000145
    13  H    0.504831   0.002895   0.000002  -0.000012  -0.000064   0.000000
    14  C    0.002895   5.533673   0.397157   0.391396   0.236780  -0.044371
    15  H    0.000002   0.397157   0.508983  -0.024657  -0.046631   0.002973
    16  H   -0.000012   0.391396  -0.024657   0.516777  -0.044388  -0.002912
    17  C   -0.000064   0.236780  -0.046631  -0.044388   5.488608   0.388621
    18  H    0.000000  -0.044371   0.002973  -0.002912   0.388621   0.512994
    19  H   -0.000008  -0.049872   0.000745   0.003118   0.392128  -0.024952
    20  C    0.000001  -0.077823  -0.004116   0.001042   0.254387  -0.046192
    21  H    0.000000  -0.000981   0.000231   0.001052  -0.046899  -0.001217
    22  H    0.000000  -0.001838   0.002416   0.000068  -0.045386   0.003201
    23  C    0.000000   0.004812   0.000118  -0.000095  -0.082038  -0.001340
    24  H    0.000000  -0.000064   0.000000   0.000006  -0.001137   0.002469
    25  H    0.000000  -0.000024   0.000003  -0.000001  -0.001071   0.000084
    26  C    0.000000  -0.000099  -0.000004   0.000001   0.004610  -0.000013
    27  H    0.000000   0.000001   0.000000   0.000000  -0.000088   0.000001
    28  H    0.000000   0.000000  -0.000001   0.000000  -0.000045   0.000001
    29  H    0.000000   0.000000   0.000000   0.000000  -0.000040   0.000004
    30  C   -0.043002  -0.058795  -0.003906  -0.005653   0.000707  -0.000008
    31  H   -0.001643  -0.004130   0.001017  -0.000864   0.000076  -0.000003
    32  H   -0.001662   0.000894   0.000039   0.000116  -0.000005   0.000000
    33  H    0.003198  -0.004765  -0.000569  -0.000369   0.000064  -0.000007
             19         20         21         22         23         24
     1  C   -0.000005   0.000001   0.000000   0.000000   0.000000   0.000000
     2  C   -0.000007  -0.000001   0.000000   0.000000   0.000000   0.000000
     3  C   -0.000183   0.000115  -0.000001  -0.000005   0.000002  -0.000001
     4  C   -0.003970   0.004504   0.000023  -0.000059  -0.000103   0.000000
     5  C    0.000161  -0.000090   0.000001  -0.000003   0.000000   0.000000
     6  H    0.000000   0.000000   0.000000   0.000000   0.000000   0.000000
     7  H    0.000000   0.000000   0.000000   0.000000   0.000000   0.000000
     8  H    0.000000   0.000000   0.000000   0.000000   0.000000   0.000000
     9  H    0.000000   0.000000   0.000000   0.000000   0.000000   0.000000
    10  H    0.000231   0.000040  -0.000002  -0.000002   0.000000  -0.000002
    11  H    0.000145   0.000001   0.000000   0.000000   0.000000   0.000000
    12  H    0.003047   0.000041   0.000000   0.000026  -0.000003   0.000000
    13  H   -0.000008   0.000001   0.000000   0.000000   0.000000   0.000000
    14  C   -0.049872  -0.077823  -0.000981  -0.001838   0.004812  -0.000064
    15  H    0.000745  -0.004116   0.000231   0.002416   0.000118   0.000000
    16  H    0.003118   0.001042   0.001052   0.000068  -0.000095   0.000006
    17  C    0.392128   0.254387  -0.046899  -0.045386  -0.082038  -0.001137
    18  H   -0.024952  -0.046192  -0.001217   0.003201  -0.001340   0.002469
    19  H    0.517034  -0.046316   0.003269  -0.001912  -0.000845   0.000078
    20  C   -0.046316   5.469721   0.388369   0.388155   0.252125  -0.046977
    21  H    0.003269   0.388369   0.521143  -0.025944  -0.046501  -0.001792
    22  H   -0.001912   0.388155  -0.025944   0.520353  -0.046389   0.003297
    23  C   -0.000845   0.252125  -0.046501  -0.046389   5.457861   0.388464
    24  H    0.000078  -0.046977  -0.001792   0.003297   0.388464   0.519238
    25  H    0.002124  -0.047236   0.003321  -0.001675   0.388830  -0.025930
    26  C   -0.000044  -0.088034  -0.000870  -0.000990   0.252618  -0.043595
    27  H    0.000001   0.004130  -0.000035  -0.000027  -0.043761  -0.001616
    28  H    0.000005  -0.001911   0.000046   0.002596  -0.047080   0.003320
    29  H    0.000000  -0.001922   0.002519   0.000044  -0.047081  -0.001840
    30  C   -0.000023  -0.000019  -0.000006  -0.000002   0.000000   0.000000
    31  H   -0.000005  -0.000007   0.000002  -0.000005   0.000000   0.000000
    32  H    0.000000   0.000000   0.000000   0.000000   0.000000   0.000000
    33  H   -0.000007   0.000003  -0.000004   0.000000   0.000000   0.000000
             25         26         27         28         29         30
     1  C    0.000000   0.000000   0.000000   0.000000   0.000000  -0.084377
     2  C    0.000000   0.000000   0.000000   0.000000   0.000000   0.005583
     3  C    0.000000   0.000000   0.000000   0.000000   0.000000   0.006591
     4  C    0.000001   0.000000   0.000000   0.000000   0.000000  -0.071082
     5  C    0.000000   0.000000   0.000000   0.000000   0.000000   0.254519
     6  H    0.000000   0.000000   0.000000   0.000000   0.000000   0.002880
     7  H    0.000000   0.000000   0.000000   0.000000   0.000000  -0.007448
     8  H    0.000000   0.000000   0.000000   0.000000   0.000000  -0.000054
     9  H    0.000000   0.000000   0.000000   0.000000   0.000000  -0.000162
    10  H    0.000000   0.000000   0.000000   0.000000   0.000000  -0.000206
    11  H    0.000000   0.000000   0.000000   0.000000   0.000000  -0.000071
    12  H   -0.000001   0.000000   0.000000   0.000000   0.000000   0.002964
    13  H    0.000000   0.000000   0.000000   0.000000   0.000000  -0.043002
    14  C   -0.000024  -0.000099   0.000001   0.000000   0.000000  -0.058795
    15  H    0.000003  -0.000004   0.000000  -0.000001   0.000000  -0.003906
    16  H   -0.000001   0.000001   0.000000   0.000000   0.000000  -0.005653
    17  C   -0.001071   0.004610  -0.000088  -0.000045  -0.000040   0.000707
    18  H    0.000084  -0.000013   0.000001   0.000001   0.000004  -0.000008
    19  H    0.002124  -0.000044   0.000001   0.000005   0.000000  -0.000023
    20  C   -0.047236  -0.088034   0.004130  -0.001911  -0.001922  -0.000019
    21  H    0.003321  -0.000870  -0.000035   0.000046   0.002519  -0.000006
    22  H   -0.001675  -0.000990  -0.000027   0.002596   0.000044  -0.000002
    23  C    0.388830   0.252618  -0.043761  -0.047080  -0.047081   0.000000
    24  H   -0.025930  -0.043595  -0.001616   0.003320  -0.001840   0.000000
    25  H    0.519106  -0.043831  -0.001533  -0.001892   0.003325   0.000000
    26  C   -0.043831   5.368430   0.381492   0.379528   0.379565   0.000000
    27  H   -0.001533   0.381492   0.513619  -0.025530  -0.025568   0.000000
    28  H   -0.001892   0.379528  -0.025530   0.518932  -0.026846   0.000000
    29  H    0.003325   0.379565  -0.025568  -0.026846   0.518909   0.000000
    30  C    0.000000   0.000000   0.000000   0.000000   0.000000   5.411996
    31  H    0.000000   0.000000   0.000000   0.000000   0.000000   0.383503
    32  H    0.000000   0.000000   0.000000   0.000000   0.000000   0.386413
    33  H    0.000000   0.000000   0.000000   0.000000   0.000000   0.384139
             31         32         33
     1  C    0.004441  -0.002456  -0.000917
     2  C   -0.000176   0.000051   0.000241
     3  C    0.000054  -0.000139   0.000224
     4  C   -0.000486   0.004049  -0.000328
     5  C   -0.048943  -0.044101  -0.052625
     6  H   -0.000086   0.000121  -0.000004
     7  H    0.000284   0.000838   0.001560
     8  H    0.000001   0.000000  -0.000002
     9  H    0.000001   0.000002  -0.000019
    10  H    0.000002   0.000002  -0.000049
    11  H   -0.000001   0.000001  -0.000004
    12  H   -0.000034  -0.000058  -0.000023
    13  H   -0.001643  -0.001662   0.003198
    14  C   -0.004130   0.000894  -0.004765
    15  H    0.001017   0.000039  -0.000569
    16  H   -0.000864   0.000116  -0.000369
    17  C    0.000076  -0.000005   0.000064
    18  H   -0.000003   0.000000  -0.000007
    19  H   -0.000005   0.000000  -0.000007
    20  C   -0.000007   0.000000   0.000003
    21  H    0.000002   0.000000  -0.000004
    22  H   -0.000005   0.000000   0.000000
    23  C    0.000000   0.000000   0.000000
    24  H    0.000000   0.000000   0.000000
    25  H    0.000000   0.000000   0.000000
    26  C    0.000000   0.000000   0.000000
    27  H    0.000000   0.000000   0.000000
    28  H    0.000000   0.000000   0.000000
    29  H    0.000000   0.000000   0.000000
    30  C    0.383503   0.386413   0.384139
    31  H    0.516699  -0.024242  -0.026870
    32  H   -0.024242   0.507307  -0.025355
    33  H   -0.026870  -0.025355   0.522817
 Mulliken atomic charges:
              1
     1  C   -0.386741
     2  C   -0.409042
     3  C   -0.388403
     4  C   -0.253627
     5  C   -0.270155
     6  H    0.203665
     7  H    0.202504
     8  H    0.202984
     9  H    0.202544
    10  H    0.205618
    11  H    0.204264
    12  H    0.207551
    13  H    0.209200
    14  C   -0.386760
    15  H    0.213233
    16  H    0.210676
    17  C   -0.413062
    18  H    0.207480
    19  H    0.206065
    20  C   -0.401991
    21  H    0.204278
    22  H    0.204081
    23  C   -0.429592
    24  H    0.206079
    25  H    0.206399
    26  C   -0.588765
    27  H    0.198915
    28  H    0.198879
    29  H    0.198932
    30  C   -0.564479
    31  H    0.201413
    32  H    0.198184
    33  H    0.199672
 Sum of Mulliken atomic charges =   0.00000
 Mulliken charges with hydrogens summed into heavy atoms:
              1
     1  C    0.019428
     2  C   -0.003514
     3  C    0.021479
     4  C   -0.046076
     5  C   -0.060955
    14  C    0.037148
    17  C    0.000483
    20  C    0.006368
    23  C   -0.017113
    26  C    0.007960
    30  C    0.034790
 Sum of Mulliken charges with hydrogens summed into heavy atoms =   0.00000
 Electronic spatial extent (au):  <R**2>=           3159.8237
 Charge=              0.0000 electrons
 Dipole moment (field-independent basis, Debye):
    X=              0.0067    Y=             -0.0022    Z=              0.0388  Tot=              0.0394
 Quadrupole moment (field-independent basis, Debye-Ang):
   XX=            -77.1772   YY=            -75.6047   ZZ=            -73.0693
   XY=              0.1651   XZ=              0.2298   YZ=              0.1395
 Traceless Quadrupole moment (field-independent basis, Debye-Ang):
   XX=             -1.8934   YY=             -0.3210   ZZ=              2.2144
   XY=              0.1651   XZ=              0.2298   YZ=              0.1395
 Octapole moment (field-independent basis, Debye-Ang**2):
  XXX=              6.1783  YYY=             -0.2040  ZZZ=             -0.8233  XYY=             -2.4211
  XXY=             -1.6714  XXZ=              2.4359  XZZ=             -0.9589  YZZ=             -0.4276
  YYZ=              2.0680  XYZ=             -1.0103
 Hexadecapole moment (field-independent basis, Debye-Ang**3):
 XXXX=          -3754.5568 YYYY=           -606.4898 ZZZZ=           -184.6658 XXXY=             25.0183
 XXXZ=              9.4293 YYYX=             -1.1413 YYYZ=              0.0771 ZZZX=             -1.7715
 ZZZY=              0.9060 XXYY=           -712.8335 XXZZ=           -632.5116 YYZZ=           -127.4158
 XXYZ=             -2.6477 YYXZ=              3.3635 ZZXY=             -1.7148
 N-N= 6.498945195587D+02 E-N=-2.292216966138D+03  KE= 4.268878545864D+02
 1\1\GINC-NODE02\SP\RHF\3-21G\C11H22\SC4102.04\26-Jun-2022\0\\# hf/3-21
 g geom=connectivity\\mol_2\\0,1\C,0,-2.76744182,-1.41860468,0.\C,0,-1.
 24558382,-1.41860468,0.\C,0,-0.77681082,0.02926032,0.\C,0,-2.00455082,
 0.91882832,-0.133186\C,0,-3.23664782,0.02571532,-0.10359\H,0,-3.159403
 82,-2.02104968,-0.857508\H,0,-3.15755682,-1.88901568,0.937504\H,0,-0.8
 5695682,-1.95320268,-0.90328\H,0,-0.85221682,-1.95933668,0.896837\H,0,
 -0.22987582,0.26095332,0.948588\H,0,-0.06484982,0.21243632,-0.843216\H
 ,0,-1.96542982,1.49641332,-1.090922\H,0,-3.84839382,0.17333732,-1.0287
 93\C,0,-2.05365848,1.94575756,1.01337615\H,0,-2.92371364,2.55920342,0.
 90572766\H,0,-2.09339188,1.43183092,1.95103316\C,0,-0.79335082,2.82945
 306,0.96534618\H,0,-0.00209459,2.35184059,1.50451211\H,0,-0.49610651,2
 .97175755,-0.0526397\C,0,-1.09967065,4.19574097,1.60645889\H,0,-1.4741
 7221,4.04856344,2.59791607\H,0,-1.83367234,4.70821295,1.02035823\C,0,0
 .18942552,5.03627744,1.66416095\H,0,0.91751797,4.53189199,2.26447478\H
 ,0,0.57333737,5.16891584,0.6742525\C,0,-0.12193365,6.41185135,2.282587
 88\H,0,0.77488832,6.99369412,2.3280778\H,0,-0.8456729,6.91866462,1.679
 0634\H,0,-0.51135028,6.27895078,3.27030856\C,0,-4.13445767,0.38601014,
 1.09462747\H,0,-4.47052337,1.39717868,0.99716961\H,0,-4.97942034,-0.27
 006092,1.11718546\H,0,-3.57723197,0.28124726,2.00205474\\Version=EM64L
 -G09RevC.01\State=1-A\HF=-426.9656245\RMSD=7.350e-09\Dipole=-0.0026185
 ,0.0024642,-0.0150758\Quadrupole=-0.1914836,-1.1293224,1.3208061,-0.39
 85267,0.3518913,-0.7865764\PG=C01 [X(C11H22)]\\@


 EXPERIMENTALISTS THINK SILICON IS REALLY FUN TO USE
     ITS PLACE IN NOVEL COMPOUNDS IS CERTAIN TO AMUSE
 THEY SIT ALL DAY IN LABORATORIES MAKING ALL THIS SLUDGE
     "LOADED WITH THE SILICON THEY SAY", TO ME IT LOOKS LIKE FUDGE.
 FOR HAPPY THOUGH THEY BE WITH CRUD, I'D LIKE TO KNOW A LITTLE
      ABOUT THE PI BONDS ON THE EDGE AND SIGMAS IN THE MIDDLE.

 SO LETS DERIVE A WAVEFUNCTION.....6-31G*
     USE AN OPTIMAL GEOMETRY AND SEE WHERE ELECTRONS ARE.
 BUT WHAT OF CORRELATION?  ASKS THE WIRY LITTLE SKEPTIC.
     WE'LL THROW IN PERTURBATION AS AN ELECTRON ANTISEPTIC.
 AND WHEN THE PROGRAM GIVES US ANSWERS IN THEM WE CAN TRUST
     SINCE NOBODY CAN MAKE THE STUFF, WE HAVE NO CHOICE, WE MUST.

 SO THEORY GUYS HAVE GOT IT MADE, IN ROOMS FREE OF POLLUTION.
     INSTEAD OF PROBLEMS WITH THE REFLUX, THEY HAVE ONLY SOLUTIONS.
 AND WHEN THE FEDS ANNOUNCE THE LIST OF CARCINOGENIC TERRORS,
     THE THEORISTS SIT SAFELY AT THEIR TERMINALS FIXING ERRORS.
 IN OTHER WORDS, EXPERIMENTALISTS WILL LIKELY DIE OF CANCER
     FROM WORKING HARD YET FRUITLESSLY...TILL THEORY GIVES THE ANSWER.
          -- THOMAS A. HOLME, 1983
 Job cpu time:  0 days  0 hours  0 minutes 11.1 seconds.
 File lengths (MBytes):  RWF=     15 Int=      0 D2E=      0 Chk=      3 Scr=      1
 Normal termination of Gaussian 09 at Sun Jun 26 00:25:38 2022.
