 Entering Gaussian System, Link 0=g09
 Input=/home/iiit/sc4102.04/Tut_assignment_5/Problem_1/Mol_9/mol_9.com
 Output=/home/iiit/sc4102.04/Tut_assignment_5/Problem_1/Mol_9/mol_9.log
 Initial command:
 /global/g09-revC/l1.exe /scratch/Gau-19403.inp -scrdir=/scratch/
 Entering Link 1 = /global/g09-revC/l1.exe PID=     19405.
  
 Copyright (c) 1988,1990,1992,1993,1995,1998,2003,2009,2011,
            Gaussian, Inc.  All Rights Reserved.
  
 This is part of the Gaussian(R) 09 program.  It is based on
 the Gaussian(R) 03 system (copyright 2003, Gaussian, Inc.),
 the Gaussian(R) 98 system (copyright 1998, Gaussian, Inc.),
 the Gaussian(R) 94 system (copyright 1995, Gaussian, Inc.),
 the Gaussian 92(TM) system (copyright 1992, Gaussian, Inc.),
 the Gaussian 90(TM) system (copyright 1990, Gaussian, Inc.),
 the Gaussian 88(TM) system (copyright 1988, Gaussian, Inc.),
 the Gaussian 86(TM) system (copyright 1986, Carnegie Mellon
 University), and the Gaussian 82(TM) system (copyright 1983,
 Carnegie Mellon University). Gaussian is a federally registered
 trademark of Gaussian, Inc.
  
 This software contains proprietary and confidential information,
 including trade secrets, belonging to Gaussian, Inc.
  
 This software is provided under written license and may be
 used, copied, transmitted, or stored only in accord with that
 written license.
  
 The following legend is applicable only to US Government
 contracts under FAR:
  
                    RESTRICTED RIGHTS LEGEND
  
 Use, reproduction and disclosure by the US Government is
 subject to restrictions as set forth in subparagraphs (a)
 and (c) of the Commercial Computer Software - Restricted
 Rights clause in FAR 52.227-19.
  
 Gaussian, Inc.
 340 Quinnipiac St., Bldg. 40, Wallingford CT 06492
  
  
 ---------------------------------------------------------------
 Warning -- This program may not be used in any manner that
 competes with the business of Gaussian, Inc. or will provide
 assistance to any competitor of Gaussian, Inc.  The licensee
 of this program is prohibited from giving any competitor of
 Gaussian, Inc. access to this program.  By using this program,
 the user acknowledges that Gaussian, Inc. is engaged in the
 business of creating and licensing software in the field of
 computational chemistry and represents and warrants to the
 licensee that it is not a competitor of Gaussian, Inc. and that
 it will not use this program in any manner prohibited above.
 ---------------------------------------------------------------
  

 Cite this work as:
 Gaussian 09, Revision C.01,
 M. J. Frisch, G. W. Trucks, H. B. Schlegel, G. E. Scuseria, 
 M. A. Robb, J. R. Cheeseman, G. Scalmani, V. Barone, B. Mennucci, 
 G. A. Petersson, H. Nakatsuji, M. Caricato, X. Li, H. P. Hratchian, 
 A. F. Izmaylov, J. Bloino, G. Zheng, J. L. Sonnenberg, M. Hada, 
 M. Ehara, K. Toyota, R. Fukuda, J. Hasegawa, M. Ishida, T. Nakajima, 
 Y. Honda, O. Kitao, H. Nakai, T. Vreven, J. A. Montgomery, Jr., 
 J. E. Peralta, F. Ogliaro, M. Bearpark, J. J. Heyd, E. Brothers, 
 K. N. Kudin, V. N. Staroverov, T. Keith, R. Kobayashi, J. Normand, 
 K. Raghavachari, A. Rendell, J. C. Burant, S. S. Iyengar, J. Tomasi, 
 M. Cossi, N. Rega, J. M. Millam, M. Klene, J. E. Knox, J. B. Cross, 
 V. Bakken, C. Adamo, J. Jaramillo, R. Gomperts, R. E. Stratmann, 
 O. Yazyev, A. J. Austin, R. Cammi, C. Pomelli, J. W. Ochterski, 
 R. L. Martin, K. Morokuma, V. G. Zakrzewski, G. A. Voth, 
 P. Salvador, J. J. Dannenberg, S. Dapprich, A. D. Daniels, 
 O. Farkas, J. B. Foresman, J. V. Ortiz, J. Cioslowski, 
 and D. J. Fox, Gaussian, Inc., Wallingford CT, 2010.
 
 ******************************************
 Gaussian 09:  EM64L-G09RevC.01 23-Sep-2011
                26-Jun-2022 
 ******************************************
 %chk=mol_9.chk
 ----------------------------
 # hf/3-21g geom=connectivity
 ----------------------------
 1/38=1,57=2/1;
 2/12=2,17=6,18=5,40=1/2;
 3/5=5,11=9,16=1,25=1,30=1/1,2,3;
 4//1;
 5/5=2,38=5/2;
 6/7=2,8=2,9=2,10=2,28=1/1;
 99/5=1,9=1/99;
 -----
 mol_9
 -----
 Charge =  0 Multiplicity = 1
 Symbolic Z-Matrix:
 C                     0.99457   1.1809   -0.32227 
 H                     1.35122   0.17209  -0.32227 
 C                     1.50791   1.90685   0.93514 
 H                     2.57791   1.90515   0.93612 
 H                     1.15285   2.91623   0.93416 
 H                     1.14964   1.40359   1.80879 
 C                    -0.54543   1.18092  -0.32227 
 H                    -0.90209   2.18973  -0.32189 
 H                    -0.90211   0.67684  -1.19611 
 H                    -0.90211   0.67619   0.5512 
 C                     1.43791   1.80786  -1.40821 
 H                     1.08144   1.30331  -2.28186 
 H                     1.08104   2.8166   -1.40834 
 C                     2.97791   1.80816  -1.40802 
 H                     3.3347    0.88946  -0.99138 
 C                     3.49091   2.98869  -0.56259 
 H                     3.85647   2.62397   0.37456 
 H                     4.2819    3.48462  -1.08536 
 H                     2.69079   3.67773  -0.38955 
 C                     3.49139   1.95016  -2.85294 
 H                     3.15467   1.11755  -3.43456 
 H                     3.11514   2.85734  -3.27763 
 C                     3.68872   0.68255  -1.52045 
 H                     4.0454    1.18694  -0.6468 
 H                     4.0454    1.18694  -2.3941 
 H                     2.61872   0.68256  -1.52045 
 C                     4.20204  -0.76939  -1.52045 
 H                     3.84537  -1.27378  -0.6468 
 H                     3.84537  -1.27378  -2.3941 
 H                     5.27204  -0.7694   -1.52045 
 C                     5.03099   1.98484  -2.84951 
 H                     5.36479   2.98734  -2.6808 
 H                     5.40031   1.3502   -2.07122 
 C                     5.55862   1.49007  -4.20908 
 H                     5.10806   2.05932  -4.9951 
 H                     6.62114   1.61126  -4.24483 
 H                     5.31327   0.45585  -4.33192 
 
                          Input orientation:                          
 ---------------------------------------------------------------------
 Center     Atomic      Atomic             Coordinates (Angstroms)
 Number     Number       Type             X           Y           Z
 ---------------------------------------------------------------------
      1          6           0        0.994566    1.180897   -0.322268
      2          1           0        1.351221    0.172087   -0.322268
      3          6           0        1.507908    1.906853    0.935137
      4          1           0        2.577907    1.905146    0.936116
      5          1           0        1.152852    2.916226    0.934160
      6          1           0        1.149639    1.403585    1.808788
      7          6           0       -0.545434    1.180916   -0.322268
      8          1           0       -0.902088    2.189726   -0.321891
      9          1           0       -0.902106    0.676844   -1.196107
     10          1           0       -0.902107    0.676191    0.551195
     11          6           0        1.437907    1.807859   -1.408208
     12          1           0        1.081443    1.303313   -2.281859
     13          1           0        1.081044    2.816596   -1.408336
     14          6           0        2.977907    1.808159   -1.408024
     15          1           0        3.334703    0.889463   -0.991377
     16          6           0        3.490909    2.988694   -0.562586
     17          1           0        3.856470    2.623972    0.374561
     18          1           0        4.281900    3.484619   -1.085358
     19          1           0        2.690794    3.677731   -0.389546
     20          6           0        3.491385    1.950158   -2.852938
     21          1           0        3.154675    1.117545   -3.434558
     22          1           0        3.115137    2.857337   -3.277630
     23          6           0        3.688724    0.682546   -1.520449
     24          1           0        4.045397    1.186944   -0.646797
     25          1           0        4.045397    1.186944   -2.394100
     26          1           0        2.618724    0.682559   -1.520449
     27          6           0        4.202040   -0.769387   -1.520449
     28          1           0        3.845368   -1.273784   -0.646797
     29          1           0        3.845367   -1.273785   -2.394100
     30          1           0        5.272040   -0.769400   -1.520449
     31          6           0        5.030991    1.984839   -2.849515
     32          1           0        5.364792    2.987342   -2.680798
     33          1           0        5.400314    1.350203   -2.071224
     34          6           0        5.558623    1.490066   -4.209075
     35          1           0        5.108060    2.059324   -4.995102
     36          1           0        6.621136    1.611258   -4.244832
     37          1           0        5.313274    0.455845   -4.331922
 ---------------------------------------------------------------------
                    Distance matrix (angstroms):
                    1          2          3          4          5
     1  C    0.000000
     2  H    1.070000   0.000000
     3  C    1.540000   2.148263   0.000000
     4  H    2.148263   2.468153   1.070000   0.000000
     5  H    2.148263   3.024609   1.070000   1.747303   0.000000
     6  H    2.148263   2.469538   1.070000   1.747303   1.747303
     7  C    1.540000   2.148263   2.514809   3.444313   2.733878
     8  H    2.148263   3.024610   2.732804   3.711324   2.515600
     9  H    2.148263   2.468979   3.444314   4.262111   3.711567
    10  H    2.148263   2.468713   2.733151   3.710659   3.063866
    11  C    1.330000   1.965333   2.346480   2.608624   2.606995
    12  H    1.965333   2.278695   3.300788   3.599579   3.598523
    13  H    1.965333   2.871579   2.549846   2.927079   2.345714
    14  C    2.346479   2.549844   2.767859   2.380000   3.169301
    15  H    2.451302   2.212812   2.843188   2.306422   3.546257
    16  C    3.091539   3.545320   2.710322   2.062463   2.777051
    17  H    3.280020   3.574015   2.518779   1.570598   2.776349
    18  H    4.086075   4.488214   3.777139   3.079722   3.767289
    19  H    3.019254   3.753468   2.507990   2.216344   2.167338
    20  C    3.637329   3.761135   4.276163   3.897871   4.554573
    21  H    3.788988   3.719232   4.735935   4.478366   5.131105
    22  H    4.005176   4.365333   4.608038   4.353267   4.646849
    23  C    2.990398   2.675842   3.504967   2.960300   4.176731
    24  H    3.068049   2.897213   3.075652   2.274853   3.722454
    25  H    3.687831   3.546972   4.247463   3.709404   4.736513
    26  H    2.078911   1.817357   2.960188   2.744284   3.628106
    27  C    3.940448   3.232520   4.522224   3.978146   5.376467
    28  H    3.775957   2.901144   4.252375   3.770633   5.225443
    29  H    4.294766   3.550183   5.163719   4.775185   5.990254
    30  H    4.851400   4.206526   5.230767   4.521755   6.047864
    31  C    4.829703   4.818066   5.171246   4.511649   5.497603
    32  H    5.284390   5.440320   5.396109   4.692541   5.550983
    33  H    4.743219   4.565300   4.949635   4.161495   5.433756
    34  C    6.002789   5.877634   6.560863   5.960701   6.920811
    35  H    6.287118   6.285769   6.939170   6.450178   7.178726
    36  H    6.872409   6.725305   7.284542   6.578472   7.643757
    37  H    5.937530   5.644086   6.657938   6.110231   7.148021
                    6          7          8          9         10
     6  H    0.000000
     7  C    2.732078   0.000000
     8  H    3.060619   1.070000   0.000000
     9  H    3.710419   1.070000   1.747303   0.000000
    10  H    2.514021   1.070000   1.747303   1.747303   0.000000
    11  C    3.255088   2.346480   2.607966   2.607652   3.255088
    12  H    4.092444   2.549845   2.926021   2.346441   3.514818
    13  H    3.514426   2.549593   2.346517   2.925144   3.514823
    14  C    3.722112   3.739817   4.047177   4.047133   4.491592
    15  H    3.588836   3.948178   4.482108   4.247078   4.513931
    16  C    3.690193   4.429208   4.471544   5.004457   5.087904
    17  H    3.297466   4.684521   4.828818   5.376091   5.144813
    18  H    4.745297   5.403010   5.397533   5.896592   6.118783
    19  H    3.518461   4.088005   3.889413   4.750242   4.775267
    20  C    5.245398   4.826172   5.076042   4.865099   5.702095
    21  H    5.620912   4.835408   5.224518   4.654283   5.704253
    22  H    5.643422   4.994430   5.031917   5.022502   5.962847
    23  C    4.248607   4.428556   4.978322   4.602278   5.036614
    24  H    3.802926   4.602291   5.058532   5.003972   5.116039
    25  H    5.108484   5.036691   5.456852   5.115973   5.780435
    26  H    3.709704   3.419926   4.013006   3.535743   4.085095
    27  C    5.012262   5.270468   6.020383   5.314988   5.695061
    28  H    4.523843   5.040835   5.885559   5.161899   5.270304
    29  H    5.665644   5.440329   6.231235   5.270545   5.917405
    30  H    5.727117   6.251590   6.950743   6.349559   6.670947
    31  C    6.091184   6.174932   6.452309   6.296527   6.962689
    32  H    6.358630   6.614878   6.743472   6.842274   7.420324
    33  H    5.755482   6.199954   6.594334   6.398418   6.859438
    34  C    7.460649   7.243090   7.572352   7.174980   8.066201
    35  H    7.898861   7.387082   7.614315   7.243322   8.294370
    36  H    8.162519   8.181163   8.504292   8.171109   8.970809
    37  H    7.479463   7.136351   7.597198   6.965137   7.907234
                   11         12         13         14         15
    11  C    0.000000
    12  H    1.070000   0.000000
    13  H    1.070000   1.747303   0.000000
    14  C    1.540000   2.148263   2.148263   0.000000
    15  H    2.148263   2.629410   2.994440   1.070000   0.000000
    16  C    2.514809   3.406162   2.559758   1.540000   2.148263
    17  H    3.113479   4.062202   3.304363   2.148263   2.268601
    18  H    3.317236   4.053720   3.285734   2.148263   2.764209
    19  H    2.470591   3.436383   2.090642   2.148263   2.924254
    20  C    2.514809   2.559758   2.940634   1.540000   2.148263
    21  H    2.744069   2.379394   3.360400   2.148263   2.460399
    22  H    2.721992   2.746354   2.762870   2.148263   3.024515
    23  C    2.518950   2.786219   3.371459   1.336004   0.669375
    24  H    2.786447   3.387034   3.467434   1.450831   0.843989
    25  H    2.855963   2.968361   3.523476   1.580440   1.600379
    26  H    1.635001   1.824368   2.632706   1.186856   0.913975
    27  C    3.780903   3.822821   4.755255   2.855675   1.945243
    28  H    3.983986   4.117541   4.995262   3.290947   2.249256
    29  H    4.032912   3.780649   5.034324   3.350106   2.628317
    30  H    4.621195   4.736770   5.516917   3.452462   2.604807
    31  C    3.875427   4.047918   4.286128   2.514809   2.744070
    32  H    4.293144   4.619760   4.472002   2.950872   3.372907
    33  H    4.043477   4.324259   4.609319   2.552962   2.375942
    34  C    4.992609   4.877928   5.445414   3.821932   3.957288
    35  H    5.138002   4.913949   5.445659   4.179446   4.532459
    36  H    5.911932   5.885261   6.339650   4.621619   4.680449
    37  H    5.039297   4.778007   5.659705   3.978928   3.906662
                   16         17         18         19         20
    16  C    0.000000
    17  H    1.070000   0.000000
    18  H    1.070000   1.747303   0.000000
    19  H    1.070000   1.747303   1.747303   0.000000
    20  C    2.514810   3.317237   2.470592   3.113480   0.000000
    21  H    3.444194   4.155866   3.520286   4.005226   1.070000
    22  H    2.744071   3.733970   2.561421   3.032185   1.070000
    23  C    2.504985   2.718149   2.897029   3.353497   1.849679
    24  H    1.887022   1.773109   2.351081   2.846955   2.399267
    25  H    2.628346   3.125096   2.654817   3.472349   1.048789
    26  H    2.645083   2.981972   3.287400   3.202373   2.035651
    27  C    3.942889   3.901969   4.276944   4.831114   3.110704
    28  H    4.278020   4.029367   4.798469   5.090847   3.922521
    29  H    4.652828   4.781016   4.954370   5.465235   3.275614
    30  H    4.267692   4.136408   4.389346   5.264860   3.513154
    31  C    2.934216   3.490366   2.433666   3.793924   1.540000
    32  H    2.828120   3.426703   1.991323   3.588417   2.148263
    33  H    2.933678   3.160349   2.603558   3.948029   2.148263
    34  C    4.451765   5.019242   3.919933   5.253487   2.514809
    35  H    4.808961   5.542435   4.242653   5.447345   2.685968
    36  H    5.025394   5.477933   4.354742   5.880572   3.442029
    37  H    4.893284   5.382753   4.558221   5.727153   2.782021
                   21         22         23         24         25
    21  H    0.000000
    22  H    1.747303   0.000000
    23  C    2.034268   2.854191   0.000000
    24  H    2.927424   3.252212   1.070000   0.000000
    25  H    1.371406   2.106235   1.070000   1.747303   0.000000
    26  H    2.034765   2.839678   1.070000   1.747303   1.747303
    27  C    2.884666   4.173987   1.540000   2.148263   2.148263
    28  H    3.737262   4.951837   2.148263   2.468845   3.024610
    29  H    2.697789   4.287194   2.148263   3.024610   2.468846
    30  H    3.421638   4.570901   2.148263   2.468846   2.468846
    31  C    2.148263   2.148263   2.294355   2.541653   1.347380
    32  H    2.991472   2.331106   3.076962   3.019834   2.250429
    33  H    2.637367   2.991472   1.917983   1.972675   1.402392
    34  C    2.552962   2.950872   3.373029   3.882211   2.382409
    35  H    2.671696   2.749233   3.997906   4.560489   2.942025
    36  H    3.593974   3.844506   4.108991   4.445259   3.199950
    37  H    2.429539   3.422061   3.254986   3.965118   2.428409
                   26         27         28         29         30
    26  H    0.000000
    27  C    2.148263   0.000000
    28  H    2.468846   1.070000   0.000000
    29  H    2.468846   1.070000   1.747303   0.000000
    30  H    3.024610   1.070000   1.747303   1.747303   0.000000
    31  C    3.046536   3.168491   4.108077   3.497390   3.067629
    32  H    3.768198   4.100172   4.960142   4.532995   3.932953
    33  H    2.913133   2.496372   3.366327   3.067152   2.193746
    34  C    4.064946   3.764858   4.823271   3.724011   3.523638
    35  H    4.490601   4.571181   5.622434   4.412395   4.483501
    36  H    4.929913   4.352213   5.382770   4.410621   3.861328
    37  H    3.900818   3.261965   4.327414   2.983543   3.067133
                   31         32         33         34         35
    31  C    0.000000
    32  H    1.070000   0.000000
    33  H    1.070000   1.747303   0.000000
    34  C    1.540000   2.148263   2.148263   0.000000
    35  H    2.148263   2.506617   3.022802   1.070000   0.000000
    36  H    2.148263   2.432736   2.506617   1.070000   1.747303
    37  H    2.148263   3.022803   2.432736   1.070000   1.747303
                   36         37
    36  H    0.000000
    37  H    1.747303   0.000000
 Stoichiometry    C11H26
 Framework group  C1[X(C11H26)]
 Deg. of freedom   105
 Full point group                 C1      NOp   1
 Largest Abelian subgroup         C1      NOp   1
 Largest concise Abelian subgroup C1      NOp   1
                         Standard orientation:                         
 ---------------------------------------------------------------------
 Center     Atomic      Atomic             Coordinates (Angstroms)
 Number     Number       Type             X           Y           Z
 ---------------------------------------------------------------------
      1          6           0       -2.213118    0.360356    0.192416
      2          1           0       -1.890590    1.348505   -0.061429
      3          6           0       -2.556556   -0.413813   -1.093785
      4          1           0       -1.689878   -0.469323   -1.718836
      5          1           0       -2.877236   -1.402592   -0.840054
      6          1           0       -3.341175    0.092580   -1.616124
      7          6           0       -3.461230    0.442659    1.090771
      8          1           0       -3.783979   -0.545497    1.344311
      9          1           0       -3.222509    0.980233    1.984598
     10          1           0       -4.244398    0.950425    0.567587
     11          6           0       -1.239497   -0.270383    0.842901
     12          1           0       -1.000702    0.267650    1.736432
     13          1           0       -1.562117   -1.258445    1.096969
     14          6           0        0.008497   -0.353007   -0.055589
     15          1           0        0.084473    0.537900   -0.643307
     16          6           0       -0.109360   -1.573835   -0.986871
     17          1           0       -0.349076   -1.245569   -1.976658
     18          1           0        0.820996   -2.102146   -1.001838
     19          1           0       -0.881889   -2.222029   -0.629177
     20          6           0        1.264998   -0.497041    0.823079
     21          1           0        1.359895    0.362393    1.453371
     22          1           0        1.178344   -1.375269    1.428147
     23          6           0        0.687688    0.734788   -0.430165
     24          1           0        0.449066    0.196892   -1.323824
     25          1           0        1.470977    0.227352    0.093158
     26          1           0       -0.179507    0.791973    0.194017
     27          6           0        1.151887    2.156984   -0.795512
     28          1           0        0.368598    2.664420   -1.318835
     29          1           0        1.390508    2.694881    0.098147
     30          1           0        2.019082    2.099799   -1.419693
     31          6           0        2.509638   -0.614027   -0.076246
     32          1           0        2.648233   -1.635729   -0.362284
     33          1           0        2.374834   -0.013706   -0.951656
     34          6           0        3.748820   -0.124542    0.696043
     35          1           0        3.824476   -0.655112    1.622148
     36          1           0        4.626838   -0.301716    0.110727
     37          1           0        3.656137    0.923300    0.891843
 ---------------------------------------------------------------------
 Rotational constants (GHZ):      1.9225295      0.5994540      0.5703047
 Standard basis: 3-21G (6D, 7F)
 There are   151 symmetry adapted basis functions of A   symmetry.
 Integral buffers will be    131072 words long.
 Raffenetti 1 integral format.
 Two-electron integral symmetry is turned on.
   151 basis functions,   243 primitive gaussians,   151 cartesian basis functions
    46 alpha electrons       46 beta electrons
       nuclear repulsion energy       776.2112795726 Hartrees.
 NAtoms=   37 NActive=   37 NUniq=   37 SFac= 1.00D+00 NAtFMM=   60 NAOKFM=F Big=F
 One-electron integrals computed using PRISM.
 NBasis=   151 RedAO= T  NBF=   151
 NBsUse=   151 1.00D-06 NBFU=   151
 Harris functional with IExCor=  205 diagonalized for initial guess.
 ExpMin= 1.83D-01 ExpMax= 1.72D+02 ExpMxC= 1.72D+02 IAcc=1 IRadAn=         1 AccDes= 0.00D+00
 HarFok:  IExCor=  205 AccDes= 0.00D+00 IRadAn=         1 IDoV= 1
 ScaDFX=  1.000000  1.000000  1.000000  1.000000
 FoFCou: FMM=F IPFlag=           0 FMFlag=      100000 FMFlg1=           0
         NFxFlg=           0 DoJE=T BraDBF=F KetDBF=T FulRan=T
         Omega=  0.000000  0.000000  1.000000  0.000000  0.000000 ICntrl=     500 IOpCl=  0
         NMat0=    1 NMatS0=    1 NMatT0=    0 NMatD0=    1 NMtDS0=    0 NMtDT0=    0
         I1Cent=           4 NGrid=           0.
 Petite list used in FoFCou.
 Initial guess orbital symmetries:
       Occupied  (A) (A) (A) (A) (A) (A) (A) (A) (A) (A) (A) (A)
                 (A) (A) (A) (A) (A) (A) (A) (A) (A) (A) (A) (A)
                 (A) (A) (A) (A) (A) (A) (A) (A) (A) (A) (A) (A)
                 (A) (A) (A) (A) (A) (A) (A) (A) (A) (A)
       Virtual   (A) (A) (A) (A) (A) (A) (A) (A) (A) (A) (A) (A)
                 (A) (A) (A) (A) (A) (A) (A) (A) (A) (A) (A) (A)
                 (A) (A) (A) (A) (A) (A) (A) (A) (A) (A) (A) (A)
                 (A) (A) (A) (A) (A) (A) (A) (A) (A) (A) (A) (A)
                 (A) (A) (A) (A) (A) (A) (A) (A) (A) (A) (A) (A)
                 (A) (A) (A) (A) (A) (A) (A) (A) (A) (A) (A) (A)
                 (A) (A) (A) (A) (A) (A) (A) (A) (A) (A) (A) (A)
                 (A) (A) (A) (A) (A) (A) (A) (A) (A) (A) (A) (A)
                 (A) (A) (A) (A) (A) (A) (A) (A) (A)
 The electronic state of the initial guess is 1-A.
 Requested convergence on RMS density matrix=1.00D-08 within 128 cycles.
 Requested convergence on MAX density matrix=1.00D-06.
 Requested convergence on             energy=1.00D-06.
 No special actions if energy rises.
 Integral accuracy reduced to 1.0D-05 until final iterations.
 Initial convergence to 1.0D-05 achieved.  Increase integral accuracy.
 SCF Done:  E(RHF) =  -427.639692319     A.U. after   26 cycles
             Convg  =    0.9379D-08             -V/T =  1.9851

 **********************************************************************

            Population analysis using the SCF density.

 **********************************************************************

 Orbital symmetries:
       Occupied  (A) (A) (A) (A) (A) (A) (A) (A) (A) (A) (A) (A)
                 (A) (A) (A) (A) (A) (A) (A) (A) (A) (A) (A) (A)
                 (A) (A) (A) (A) (A) (A) (A) (A) (A) (A) (A) (A)
                 (A) (A) (A) (A) (A) (A) (A) (A) (A) (A)
       Virtual   (A) (A) (A) (A) (A) (A) (A) (A) (A) (A) (A) (A)
                 (A) (A) (A) (A) (A) (A) (A) (A) (A) (A) (A) (A)
                 (A) (A) (A) (A) (A) (A) (A) (A) (A) (A) (A) (A)
                 (A) (A) (A) (A) (A) (A) (A) (A) (A) (A) (A) (A)
                 (A) (A) (A) (A) (A) (A) (A) (A) (A) (A) (A) (A)
                 (A) (A) (A) (A) (A) (A) (A) (A) (A) (A) (A) (A)
                 (A) (A) (A) (A) (A) (A) (A) (A) (A) (A) (A) (A)
                 (A) (A) (A) (A) (A) (A) (A) (A) (A) (A) (A) (A)
                 (A) (A) (A) (A) (A) (A) (A) (A) (A)
 The electronic state is 1-A.
 Alpha  occ. eigenvalues --  -11.21126 -11.20077 -11.18921 -11.17420 -11.17193
 Alpha  occ. eigenvalues --  -11.14683 -11.14242 -11.14204 -11.13222 -11.13165
 Alpha  occ. eigenvalues --  -11.11545  -1.51948  -1.22408  -1.14860  -1.02739
 Alpha  occ. eigenvalues --   -1.00408  -0.97849  -0.94586  -0.93064  -0.87580
 Alpha  occ. eigenvalues --   -0.82247  -0.78638  -0.76492  -0.73641  -0.67253
 Alpha  occ. eigenvalues --   -0.65675  -0.63071  -0.60813  -0.60454  -0.58923
 Alpha  occ. eigenvalues --   -0.56444  -0.55392  -0.54604  -0.54465  -0.53249
 Alpha  occ. eigenvalues --   -0.53232  -0.52859  -0.51194  -0.50519  -0.49996
 Alpha  occ. eigenvalues --   -0.47875  -0.45673  -0.44315  -0.39532  -0.35237
 Alpha  occ. eigenvalues --   -0.08009
 Alpha virt. eigenvalues --    0.17794   0.24409   0.24981   0.26811   0.27975
 Alpha virt. eigenvalues --    0.29635   0.30530   0.31033   0.32103   0.33191
 Alpha virt. eigenvalues --    0.33755   0.33859   0.35021   0.35132   0.36536
 Alpha virt. eigenvalues --    0.36806   0.37616   0.37738   0.38512   0.39564
 Alpha virt. eigenvalues --    0.39784   0.40796   0.42254   0.43143   0.45086
 Alpha virt. eigenvalues --    0.46212   0.46601   0.48714   0.49120   0.51585
 Alpha virt. eigenvalues --    0.52897   0.56496   0.58572   0.64748   0.68257
 Alpha virt. eigenvalues --    0.86953   0.87722   0.90068   0.90923   0.91549
 Alpha virt. eigenvalues --    0.92831   0.94775   0.98133   0.99174   1.00658
 Alpha virt. eigenvalues --    1.02722   1.02903   1.05490   1.06384   1.07503
 Alpha virt. eigenvalues --    1.08452   1.11260   1.13233   1.14696   1.17015
 Alpha virt. eigenvalues --    1.18160   1.20427   1.22180   1.25190   1.25907
 Alpha virt. eigenvalues --    1.26708   1.28166   1.28465   1.30904   1.34429
 Alpha virt. eigenvalues --    1.35751   1.36678   1.37330   1.37861   1.38942
 Alpha virt. eigenvalues --    1.39471   1.39853   1.41002   1.42219   1.42445
 Alpha virt. eigenvalues --    1.43197   1.43781   1.45412   1.45701   1.47099
 Alpha virt. eigenvalues --    1.48076   1.49326   1.49554   1.50882   1.54410
 Alpha virt. eigenvalues --    1.56609   1.58233   1.62700   1.63131   1.67392
 Alpha virt. eigenvalues --    1.81010   1.86253   1.94241   2.03585   2.09863
 Alpha virt. eigenvalues --    2.12237   2.23453   2.31243   2.36392   2.48273
 Alpha virt. eigenvalues --    2.60159   2.64092   2.85801   2.90832   3.26628
          Condensed to atoms (all electrons):
              1          2          3          4          5          6
     1  C    6.001149   0.380638   0.250809  -0.053159  -0.052146  -0.041155
     2  H    0.380638   0.468348  -0.035916   0.000980   0.002942  -0.002122
     3  C    0.250809  -0.035916   5.492996   0.375815   0.380163   0.388026
     4  H   -0.053159   0.000980   0.375815   0.532505  -0.028185  -0.026001
     5  H   -0.052146   0.002942   0.380163  -0.028185   0.524840  -0.023993
     6  H   -0.041155  -0.002122   0.388026  -0.026001  -0.023993   0.498835
     7  C    0.291459  -0.031174  -0.084745   0.003374  -0.000690  -0.002687
     8  H   -0.053542   0.002707  -0.001343  -0.000072   0.002619  -0.000020
     9  H   -0.049539  -0.000718   0.004056  -0.000062  -0.000053  -0.000021
    10  H   -0.045352  -0.001935  -0.001661  -0.000036  -0.000066   0.002108
    11  C    0.045163  -0.066921  -0.146249  -0.000224   0.001361   0.006170
    12  H   -0.067380  -0.003939   0.007410  -0.000290  -0.000138  -0.000103
    13  H   -0.055287   0.006565  -0.006453   0.001511   0.003907  -0.000046
    14  C   -0.074753  -0.042603   0.002305  -0.044024  -0.000538   0.000142
    15  H    0.029976  -0.009415   0.003297  -0.005812   0.000097   0.000150
    16  C    0.003714   0.001887  -0.044368  -0.020245  -0.001801   0.000681
    17  H    0.000376   0.000220  -0.016250   0.003849   0.000448   0.000257
    18  H   -0.000126  -0.000030   0.001422   0.000494  -0.000027  -0.000007
    19  H    0.000810   0.000178  -0.007416  -0.001525   0.000403   0.000121
    20  C    0.008625  -0.000671   0.000138   0.000160  -0.000037   0.000000
    21  H   -0.000297   0.000188   0.000006   0.000022   0.000000   0.000000
    22  H   -0.000174   0.000022  -0.000002   0.000012  -0.000002   0.000000
    23  C    0.002689   0.003295   0.001100   0.000093  -0.000087  -0.000011
    24  H   -0.026046   0.009979  -0.005046   0.030632   0.000020  -0.000172
    25  H   -0.000628   0.000050  -0.000140  -0.000218   0.000002   0.000001
    26  H   -0.105672   0.070708   0.001473   0.012990   0.000241  -0.000209
    27  C    0.004543  -0.003725  -0.000086  -0.000839  -0.000001   0.000005
    28  H   -0.000825   0.001750   0.000034   0.000150   0.000000  -0.000003
    29  H   -0.000357   0.000491   0.000004   0.000017   0.000000   0.000000
    30  H   -0.000068   0.000101   0.000001   0.000038   0.000000   0.000000
    31  C   -0.000171  -0.000023   0.000004  -0.000017   0.000000   0.000000
    32  H   -0.000001   0.000000   0.000001  -0.000005   0.000000   0.000000
    33  H   -0.000028   0.000022  -0.000004   0.000069   0.000000   0.000000
    34  C    0.000001   0.000000   0.000000   0.000000   0.000000   0.000000
    35  H    0.000000   0.000000   0.000000   0.000000   0.000000   0.000000
    36  H    0.000000   0.000000   0.000000   0.000000   0.000000   0.000000
    37  H    0.000000   0.000000   0.000000   0.000000   0.000000   0.000000
              7          8          9         10         11         12
     1  C    0.291459  -0.053542  -0.049539  -0.045352   0.045163  -0.067380
     2  H   -0.031174   0.002707  -0.000718  -0.001935  -0.066921  -0.003939
     3  C   -0.084745  -0.001343   0.004056  -0.001661  -0.146249   0.007410
     4  H    0.003374  -0.000072  -0.000062  -0.000036  -0.000224  -0.000290
     5  H   -0.000690   0.002619  -0.000053  -0.000066   0.001361  -0.000138
     6  H   -0.002687  -0.000020  -0.000021   0.002108   0.006170  -0.000103
     7  C    5.346755   0.381465   0.381426   0.384759  -0.123448  -0.005469
     8  H    0.381465   0.523947  -0.026944  -0.024892  -0.000399   0.000019
     9  H    0.381426  -0.026944   0.514118  -0.023892  -0.002165   0.003752
    10  H    0.384759  -0.024892  -0.023892   0.502568   0.006393   0.000055
    11  C   -0.123448  -0.000399  -0.002165   0.006393   5.984909   0.422356
    12  H   -0.005469   0.000019   0.003752   0.000055   0.422356   0.469957
    13  H   -0.006576   0.003359   0.000387  -0.000011   0.353579  -0.018363
    14  C    0.011838  -0.000149  -0.000238  -0.000205   0.258986  -0.047031
    15  H   -0.000139   0.000020  -0.000062   0.000014  -0.035009   0.000752
    16  C   -0.000308  -0.000019   0.000005   0.000003  -0.103196   0.002674
    17  H   -0.000019  -0.000001   0.000000   0.000000   0.002016  -0.000090
    18  H    0.000005   0.000000   0.000000   0.000000   0.003595  -0.000062
    19  H   -0.000114  -0.000048   0.000003   0.000000  -0.008052   0.000129
    20  C   -0.000174   0.000003  -0.000003   0.000001  -0.050365  -0.002303
    21  H   -0.000014  -0.000001   0.000002   0.000000  -0.004025   0.000205
    22  H    0.000002   0.000000   0.000000   0.000000  -0.001395   0.000417
    23  C   -0.000517  -0.000010   0.000056   0.000011  -0.077912   0.007042
    24  H   -0.000005  -0.000008   0.000008  -0.000004   0.034602  -0.001023
    25  H    0.000026   0.000001   0.000000   0.000000   0.020628  -0.000816
    26  H   -0.001945  -0.000145   0.000458  -0.000068  -0.200920  -0.011681
    27  C    0.000010   0.000000  -0.000003   0.000000  -0.000038   0.000232
    28  H    0.000002   0.000000   0.000000   0.000000   0.000229  -0.000001
    29  H    0.000000   0.000000   0.000001   0.000000   0.000303  -0.000075
    30  H    0.000000   0.000000   0.000000   0.000000  -0.000062  -0.000002
    31  C    0.000000   0.000000   0.000000   0.000000   0.001112   0.000055
    32  H    0.000000   0.000000   0.000000   0.000000   0.000094   0.000002
    33  H    0.000000   0.000000   0.000000   0.000000  -0.000517  -0.000001
    34  C    0.000000   0.000000   0.000000   0.000000  -0.000043  -0.000007
    35  H    0.000000   0.000000   0.000000   0.000000  -0.000004   0.000001
    36  H    0.000000   0.000000   0.000000   0.000000   0.000000   0.000000
    37  H    0.000000   0.000000   0.000000   0.000000   0.000001   0.000000
             13         14         15         16         17         18
     1  C   -0.055287  -0.074753   0.029976   0.003714   0.000376  -0.000126
     2  H    0.006565  -0.042603  -0.009415   0.001887   0.000220  -0.000030
     3  C   -0.006453   0.002305   0.003297  -0.044368  -0.016250   0.001422
     4  H    0.001511  -0.044024  -0.005812  -0.020245   0.003849   0.000494
     5  H    0.003907  -0.000538   0.000097  -0.001801   0.000448  -0.000027
     6  H   -0.000046   0.000142   0.000150   0.000681   0.000257  -0.000007
     7  C   -0.006576   0.011838  -0.000139  -0.000308  -0.000019   0.000005
     8  H    0.003359  -0.000149   0.000020  -0.000019  -0.000001   0.000000
     9  H    0.000387  -0.000238  -0.000062   0.000005   0.000000   0.000000
    10  H   -0.000011  -0.000205   0.000014   0.000003   0.000000   0.000000
    11  C    0.353579   0.258986  -0.035009  -0.103196   0.002016   0.003595
    12  H   -0.018363  -0.047031   0.000752   0.002674  -0.000090  -0.000062
    13  H    0.510050  -0.062895  -0.002713   0.009503   0.000639  -0.000696
    14  C   -0.062895  10.347573   0.671022  -0.200874  -0.091949  -0.006662
    15  H   -0.002713   0.671022   1.155014  -0.130050  -0.003258   0.005777
    16  C    0.009503  -0.200874  -0.130050   5.753144   0.385388   0.376452
    17  H    0.000639  -0.091949  -0.003258   0.385388   0.457441  -0.027606
    18  H   -0.000696  -0.006662   0.005777   0.376452  -0.027606   0.523456
    19  H    0.006234  -0.077048  -0.002145   0.376533  -0.017975  -0.033818
    20  C   -0.006679   0.450494   0.154566  -0.106739   0.004067  -0.012238
    21  H    0.000644  -0.075592  -0.006414   0.006283  -0.000010  -0.000230
    22  H    0.002395  -0.065691  -0.005072   0.007189  -0.000085   0.000263
    23  C    0.007484  -1.198373  -0.049845  -0.043366  -0.002910   0.003753
    24  H    0.003998  -1.672900  -0.528760   0.191964   0.054975  -0.032071
    25  H   -0.000298  -0.147474  -0.137574  -0.000616  -0.001829   0.004397
    26  H    0.030417  -1.633294  -0.589416   0.156727   0.005831  -0.006031
    27  C   -0.000175   0.228418   0.173911  -0.009629  -0.000814   0.000496
    28  H    0.000008  -0.008899  -0.021155   0.000284   0.000022  -0.000006
    29  H    0.000010  -0.013987  -0.009674   0.000176   0.000013  -0.000010
    30  H    0.000003  -0.012161  -0.012827   0.000739   0.000102  -0.000079
    31  C    0.000102  -0.057296   0.031720  -0.001175   0.000439  -0.009487
    32  H   -0.000010  -0.000222  -0.000476  -0.003190  -0.000242   0.007339
    33  H    0.000034  -0.034983  -0.009623   0.011489   0.000566  -0.003997
    34  C    0.000002   0.004811  -0.000475   0.000606   0.000003   0.000080
    35  H    0.000000   0.000126   0.000035  -0.000026   0.000000   0.000005
    36  H    0.000000  -0.000137  -0.000004   0.000006   0.000000  -0.000005
    37  H    0.000000  -0.000217  -0.000240  -0.000001   0.000000  -0.000006
             19         20         21         22         23         24
     1  C    0.000810   0.008625  -0.000297  -0.000174   0.002689  -0.026046
     2  H    0.000178  -0.000671   0.000188   0.000022   0.003295   0.009979
     3  C   -0.007416   0.000138   0.000006  -0.000002   0.001100  -0.005046
     4  H   -0.001525   0.000160   0.000022   0.000012   0.000093   0.030632
     5  H    0.000403  -0.000037   0.000000  -0.000002  -0.000087   0.000020
     6  H    0.000121   0.000000   0.000000   0.000000  -0.000011  -0.000172
     7  C   -0.000114  -0.000174  -0.000014   0.000002  -0.000517  -0.000005
     8  H   -0.000048   0.000003  -0.000001   0.000000  -0.000010  -0.000008
     9  H    0.000003  -0.000003   0.000002   0.000000   0.000056   0.000008
    10  H    0.000000   0.000001   0.000000   0.000000   0.000011  -0.000004
    11  C   -0.008052  -0.050365  -0.004025  -0.001395  -0.077912   0.034602
    12  H    0.000129  -0.002303   0.000205   0.000417   0.007042  -0.001023
    13  H    0.006234  -0.006679   0.000644   0.002395   0.007484   0.003998
    14  C   -0.077048   0.450494  -0.075592  -0.065691  -1.198373  -1.672900
    15  H   -0.002145   0.154566  -0.006414  -0.005072  -0.049845  -0.528760
    16  C    0.376533  -0.106739   0.006283   0.007189  -0.043366   0.191964
    17  H   -0.017975   0.004067  -0.000010  -0.000085  -0.002910   0.054975
    18  H   -0.033818  -0.012238  -0.000230   0.000263   0.003753  -0.032071
    19  H    0.520822   0.000055   0.000097   0.000574   0.008829   0.014798
    20  C    0.000055   7.018660   0.372801   0.329517  -1.035465  -0.047652
    21  H    0.000097   0.372801   0.444777  -0.015144  -0.028637   0.013539
    22  H    0.000574   0.329517  -0.015144   0.462084   0.046868   0.001542
    23  C    0.008829  -1.035465  -0.028637   0.046868   7.324224   0.465742
    24  H    0.014798  -0.047652   0.013539   0.001542   0.465742   2.493268
    25  H   -0.000295  -0.454022  -0.022348   0.026168   0.636856  -0.048144
    26  H    0.005901  -0.183849   0.055387   0.006409   0.651414   0.623298
    27  C   -0.000115   0.028610  -0.015780  -0.000312   0.029645  -0.410653
    28  H    0.000004  -0.001393   0.000076   0.000011  -0.057565   0.021285
    29  H    0.000003  -0.001867   0.005266   0.000010  -0.035052   0.018269
    30  H    0.000005  -0.000423   0.001020   0.000009  -0.039074   0.045449
    31  C    0.000372   0.304418  -0.042910  -0.022933  -0.265060  -0.041744
    32  H   -0.000063  -0.033695   0.001242  -0.001433   0.005979  -0.002654
    33  H    0.000148  -0.071360   0.006383   0.001008  -0.010457   0.059525
    34  C    0.000003  -0.084926   0.001930   0.000953   0.015724   0.002613
    35  H    0.000000   0.000077   0.000030  -0.000094  -0.000149  -0.000078
    36  H    0.000000   0.003344   0.000019  -0.000016  -0.000287   0.000002
    37  H    0.000000  -0.003315   0.001996  -0.000032  -0.000395   0.000192
             25         26         27         28         29         30
     1  C   -0.000628  -0.105672   0.004543  -0.000825  -0.000357  -0.000068
     2  H    0.000050   0.070708  -0.003725   0.001750   0.000491   0.000101
     3  C   -0.000140   0.001473  -0.000086   0.000034   0.000004   0.000001
     4  H   -0.000218   0.012990  -0.000839   0.000150   0.000017   0.000038
     5  H    0.000002   0.000241  -0.000001   0.000000   0.000000   0.000000
     6  H    0.000001  -0.000209   0.000005  -0.000003   0.000000   0.000000
     7  C    0.000026  -0.001945   0.000010   0.000002   0.000000   0.000000
     8  H    0.000001  -0.000145   0.000000   0.000000   0.000000   0.000000
     9  H    0.000000   0.000458  -0.000003   0.000000   0.000001   0.000000
    10  H    0.000000  -0.000068   0.000000   0.000000   0.000000   0.000000
    11  C    0.020628  -0.200920  -0.000038   0.000229   0.000303  -0.000062
    12  H   -0.000816  -0.011681   0.000232  -0.000001  -0.000075  -0.000002
    13  H   -0.000298   0.030417  -0.000175   0.000008   0.000010   0.000003
    14  C   -0.147474  -1.633294   0.228418  -0.008899  -0.013987  -0.012161
    15  H   -0.137574  -0.589416   0.173911  -0.021155  -0.009674  -0.012827
    16  C   -0.000616   0.156727  -0.009629   0.000284   0.000176   0.000739
    17  H   -0.001829   0.005831  -0.000814   0.000022   0.000013   0.000102
    18  H    0.004397  -0.006031   0.000496  -0.000006  -0.000010  -0.000079
    19  H   -0.000295   0.005901  -0.000115   0.000004   0.000003   0.000005
    20  C   -0.454022  -0.183849   0.028610  -0.001393  -0.001867  -0.000423
    21  H   -0.022348   0.055387  -0.015780   0.000076   0.005266   0.001020
    22  H    0.026168   0.006409  -0.000312   0.000011   0.000010   0.000009
    23  C    0.636856   0.651414   0.029645  -0.057565  -0.035052  -0.039074
    24  H   -0.048144   0.623298  -0.410653   0.021285   0.018269   0.045449
    25  H    0.814199  -0.057662   0.012999   0.003471  -0.007943  -0.011374
    26  H   -0.057662   2.569802  -0.418713   0.021056   0.039752   0.019774
    27  C    0.012999  -0.418713   5.990294   0.366252   0.272354   0.254134
    28  H    0.003471   0.021056   0.366252   0.520800  -0.015800  -0.014646
    29  H   -0.007943   0.039752   0.272354  -0.015800   0.599989  -0.006701
    30  H   -0.011374   0.019774   0.254134  -0.014646  -0.006701   0.612457
    31  C   -0.257547   0.009857   0.012845  -0.000451  -0.000631  -0.003750
    32  H    0.012004  -0.000809   0.000413  -0.000001  -0.000017  -0.000099
    33  H   -0.014739   0.017001  -0.030675   0.000526   0.001804   0.015210
    34  C   -0.022784   0.000656  -0.002281   0.000026   0.000176   0.000434
    35  H    0.000488  -0.000062   0.000061   0.000000  -0.000020  -0.000014
    36  H    0.001027   0.000004   0.000003   0.000000   0.000002   0.000032
    37  H    0.007676   0.000153   0.000083   0.000003   0.000647   0.000333
             31         32         33         34         35         36
     1  C   -0.000171  -0.000001  -0.000028   0.000001   0.000000   0.000000
     2  H   -0.000023   0.000000   0.000022   0.000000   0.000000   0.000000
     3  C    0.000004   0.000001  -0.000004   0.000000   0.000000   0.000000
     4  H   -0.000017  -0.000005   0.000069   0.000000   0.000000   0.000000
     5  H    0.000000   0.000000   0.000000   0.000000   0.000000   0.000000
     6  H    0.000000   0.000000   0.000000   0.000000   0.000000   0.000000
     7  C    0.000000   0.000000   0.000000   0.000000   0.000000   0.000000
     8  H    0.000000   0.000000   0.000000   0.000000   0.000000   0.000000
     9  H    0.000000   0.000000   0.000000   0.000000   0.000000   0.000000
    10  H    0.000000   0.000000   0.000000   0.000000   0.000000   0.000000
    11  C    0.001112   0.000094  -0.000517  -0.000043  -0.000004   0.000000
    12  H    0.000055   0.000002  -0.000001  -0.000007   0.000001   0.000000
    13  H    0.000102  -0.000010   0.000034   0.000002   0.000000   0.000000
    14  C   -0.057296  -0.000222  -0.034983   0.004811   0.000126  -0.000137
    15  H    0.031720  -0.000476  -0.009623  -0.000475   0.000035  -0.000004
    16  C   -0.001175  -0.003190   0.011489   0.000606  -0.000026   0.000006
    17  H    0.000439  -0.000242   0.000566   0.000003   0.000000   0.000000
    18  H   -0.009487   0.007339  -0.003997   0.000080   0.000005  -0.000005
    19  H    0.000372  -0.000063   0.000148   0.000003   0.000000   0.000000
    20  C    0.304418  -0.033695  -0.071360  -0.084926   0.000077   0.003344
    21  H   -0.042910   0.001242   0.006383   0.001930   0.000030   0.000019
    22  H   -0.022933  -0.001433   0.001008   0.000953  -0.000094  -0.000016
    23  C   -0.265060   0.005979  -0.010457   0.015724  -0.000149  -0.000287
    24  H   -0.041744  -0.002654   0.059525   0.002613  -0.000078   0.000002
    25  H   -0.257547   0.012004  -0.014739  -0.022784   0.000488   0.001027
    26  H    0.009857  -0.000809   0.017001   0.000656  -0.000062   0.000004
    27  C    0.012845   0.000413  -0.030675  -0.002281   0.000061   0.000003
    28  H   -0.000451  -0.000001   0.000526   0.000026   0.000000   0.000000
    29  H   -0.000631  -0.000017   0.001804   0.000176  -0.000020   0.000002
    30  H   -0.003750  -0.000099   0.015210   0.000434  -0.000014   0.000032
    31  C    6.192331   0.387075   0.346796   0.187202  -0.048509  -0.040249
    32  H    0.387075   0.420879  -0.019298  -0.034203  -0.001385  -0.001589
    33  H    0.346796  -0.019298   0.422000  -0.026957   0.002235  -0.001331
    34  C    0.187202  -0.034203  -0.026957   5.397244   0.377275   0.385655
    35  H   -0.048509  -0.001385   0.002235   0.377275   0.502155  -0.022892
    36  H   -0.040249  -0.001589  -0.001331   0.385655  -0.022892   0.470485
    37  H   -0.050266   0.002279  -0.001453   0.381876  -0.026518  -0.022260
             37
     1  C    0.000000
     2  H    0.000000
     3  C    0.000000
     4  H    0.000000
     5  H    0.000000
     6  H    0.000000
     7  C    0.000000
     8  H    0.000000
     9  H    0.000000
    10  H    0.000000
    11  C    0.000001
    12  H    0.000000
    13  H    0.000000
    14  C   -0.000217
    15  H   -0.000240
    16  C   -0.000001
    17  H    0.000000
    18  H   -0.000006
    19  H    0.000000
    20  C   -0.003315
    21  H    0.001996
    22  H   -0.000032
    23  C   -0.000395
    24  H    0.000192
    25  H    0.007676
    26  H    0.000153
    27  C    0.000083
    28  H    0.000003
    29  H    0.000647
    30  H    0.000333
    31  C   -0.050266
    32  H    0.002279
    33  H   -0.001453
    34  C    0.381876
    35  H   -0.026518
    36  H   -0.022260
    37  H    0.490683
 Mulliken atomic charges:
              1
     1  C   -0.393246
     2  H    0.248122
     3  C   -0.559378
     4  H    0.217999
     5  H    0.190719
     6  H    0.200055
     7  C   -0.543095
     8  H    0.193456
     9  H    0.199428
    10  H    0.202210
    11  C   -0.320549
    12  H    0.243716
    13  H    0.219371
    14  C   -0.405520
    15  H    0.333808
    16  C   -0.619846
    17  H    0.246386
    18  H    0.205659
    19  H    0.212593
    20  C   -0.578361
    21  H    0.299490
    22  H    0.226931
    23  C   -0.365632
    24  H   -0.268741
    25  H    0.646460
    26  H   -0.088834
    27  C   -0.481470
    28  H    0.184758
    29  H    0.152848
    30  H    0.151439
    31  C   -0.632111
    32  H    0.262086
    33  H    0.340606
    34  C   -0.585596
    35  H    0.217264
    36  H    0.228190
    37  H    0.218782
 Sum of Mulliken atomic charges =   0.00000
 Mulliken charges with hydrogens summed into heavy atoms:
              1
     1  C   -0.145124
     3  C    0.049395
     7  C    0.051999
    11  C    0.142539
    14  C   -0.405520
    16  C    0.044792
    20  C    0.594521
    23  C   -0.389398
    27  C    0.007575
    31  C   -0.029419
    34  C    0.078640
 Sum of Mulliken charges with hydrogens summed into heavy atoms =   0.00000
 Electronic spatial extent (au):  <R**2>=           2359.4959
 Charge=              0.0000 electrons
 Dipole moment (field-independent basis, Debye):
    X=              1.2349    Y=             -1.4072    Z=              1.9680  Tot=              2.7163
 Quadrupole moment (field-independent basis, Debye-Ang):
   XX=            -72.9723   YY=            -81.7593   ZZ=            -82.2068
   XY=             -1.5453   XZ=              2.1085   YZ=             -0.1052
 Traceless Quadrupole moment (field-independent basis, Debye-Ang):
   XX=              6.0072   YY=             -2.7798   ZZ=             -3.2274
   XY=             -1.5453   XZ=              2.1085   YZ=             -0.1052
 Octapole moment (field-independent basis, Debye-Ang**2):
  XXX=             22.1030  YYY=            -10.1053  ZZZ=             12.6175  XYY=             -3.7165
  XXY=             -4.9789  XXZ=              1.3927  XZZ=             -1.2757  YZZ=             -0.2263
  YYZ=              3.7574  XYZ=              3.8305
 Hexadecapole moment (field-independent basis, Debye-Ang**3):
 XXXX=          -2231.5960 YYYY=           -599.4458 ZZZZ=           -460.5263 XXXY=            -20.0700
 XXXZ=              1.1213 YYYX=            -11.5671 YYYZ=             -0.7819 ZZZX=             10.0050
 ZZZY=              4.4388 XXYY=           -470.3721 XXZZ=           -459.8015 YYZZ=           -173.7207
 XXYZ=             -1.1433 YYXZ=              4.0796 ZZXY=             -4.5564
 N-N= 7.762112795726D+02 E-N=-2.548184383616D+03  KE= 4.341033144413D+02
 1\1\GINC-NODE02\SP\RHF\3-21G\C11H26\SC4102.04\26-Jun-2022\0\\# hf/3-21
 g geom=connectivity\\mol_9\\0,1\C,0,0.99456613,1.18089714,-0.32226761\
 H,0,1.35122055,0.17208714,-0.32226761\C,0,1.50790835,1.90685341,0.9351
 3736\H,0,2.57790654,1.90514635,0.93611571\H,0,1.15285179,2.91622643,0.
 93415997\H,0,1.14963938,1.40358542,1.80878756\C,0,-0.54543387,1.180916
 12,-0.32226761\H,0,-0.90208779,2.18972623,-0.32189069\H,0,-0.90210643,
 0.67684385,-1.19610732\H,0,-0.90210695,0.67619143,0.55119522\C,0,1.437
 90713,1.80785938,-1.40820826\H,0,1.08144255,1.30331306,-2.28185923\H,0
 ,1.08104442,2.81659571,-1.40833645\C,0,2.97790709,1.80815875,-1.408023
 99\H,0,3.3347027,0.88946282,-0.99137705\C,0,3.49090933,2.98869382,-0.5
 6258585\H,0,3.85646986,2.62397222,0.3745607\H,0,4.28190041,3.48461946,
 -1.08535813\H,0,2.69079412,3.67773135,-0.38954554\C,0,3.49138527,1.950
 15827,-2.85293794\H,0,3.15467493,1.11754503,-3.43455753\H,0,3.11513673
 ,2.85733727,-3.27762993\C,0,3.68872449,0.68254564,-1.52044851\H,0,4.04
 539733,1.18694383,-0.646797\H,0,4.04539733,1.18694383,-2.39410001\H,0,
 2.61872449,0.68255883,-1.52044851\C,0,4.2020402,-0.76938651,-1.5204485
 1\H,0,3.84536796,-1.27378449,-0.64679664\H,0,3.84536677,-1.27378491,-2
 .39409965\H,0,5.2720402,-0.76939969,-1.52044923\C,0,5.03099091,1.98483
 882,-2.84951497\H,0,5.36479153,2.98734161,-2.68079832\H,0,5.40031433,1
 .3502028,-2.07122368\C,0,5.558623,1.49006621,-4.20907536\H,0,5.1080601
 8,2.05932444,-4.9951022\H,0,6.62113604,1.61125835,-4.24483158\H,0,5.31
 327414,0.45584537,-4.3319215\\Version=EM64L-G09RevC.01\State=1-A\HF=-4
 27.6396923\RMSD=9.379e-09\Dipole=-0.0283376,0.5717837,-0.9023952\Quadr
 upole=0.7235598,-2.1339785,1.4104187,0.8034451,-3.773378,-0.5951985\PG
 =C01 [X(C11H26)]\\@


 THE MOLECULE ALSO HAS A BODY.  WHEN THIS BODY IS HIT, THE MOLECULE
 FEELS HURT ALL OVER -- A. KITAIGORODSKI
 Job cpu time:  0 days  0 hours  0 minutes 36.6 seconds.
 File lengths (MBytes):  RWF=     15 Int=      0 D2E=      0 Chk=      3 Scr=      1
 Normal termination of Gaussian 09 at Sun Jun 26 00:49:12 2022.
