 Entering Gaussian System, Link 0=g09
 Input=/home/iiit/sc4102.04/Tut_assignment_5/Problem_1/Mol_5/mol_5.com
 Output=/home/iiit/sc4102.04/Tut_assignment_5/Problem_1/Mol_5/mol_5.log
 Initial command:
 /global/g09-revC/l1.exe /scratch/Gau-18771.inp -scrdir=/scratch/
 Entering Link 1 = /global/g09-revC/l1.exe PID=     18773.
  
 Copyright (c) 1988,1990,1992,1993,1995,1998,2003,2009,2011,
            Gaussian, Inc.  All Rights Reserved.
  
 This is part of the Gaussian(R) 09 program.  It is based on
 the Gaussian(R) 03 system (copyright 2003, Gaussian, Inc.),
 the Gaussian(R) 98 system (copyright 1998, Gaussian, Inc.),
 the Gaussian(R) 94 system (copyright 1995, Gaussian, Inc.),
 the Gaussian 92(TM) system (copyright 1992, Gaussian, Inc.),
 the Gaussian 90(TM) system (copyright 1990, Gaussian, Inc.),
 the Gaussian 88(TM) system (copyright 1988, Gaussian, Inc.),
 the Gaussian 86(TM) system (copyright 1986, Carnegie Mellon
 University), and the Gaussian 82(TM) system (copyright 1983,
 Carnegie Mellon University). Gaussian is a federally registered
 trademark of Gaussian, Inc.
  
 This software contains proprietary and confidential information,
 including trade secrets, belonging to Gaussian, Inc.
  
 This software is provided under written license and may be
 used, copied, transmitted, or stored only in accord with that
 written license.
  
 The following legend is applicable only to US Government
 contracts under FAR:
  
                    RESTRICTED RIGHTS LEGEND
  
 Use, reproduction and disclosure by the US Government is
 subject to restrictions as set forth in subparagraphs (a)
 and (c) of the Commercial Computer Software - Restricted
 Rights clause in FAR 52.227-19.
  
 Gaussian, Inc.
 340 Quinnipiac St., Bldg. 40, Wallingford CT 06492
  
  
 ---------------------------------------------------------------
 Warning -- This program may not be used in any manner that
 competes with the business of Gaussian, Inc. or will provide
 assistance to any competitor of Gaussian, Inc.  The licensee
 of this program is prohibited from giving any competitor of
 Gaussian, Inc. access to this program.  By using this program,
 the user acknowledges that Gaussian, Inc. is engaged in the
 business of creating and licensing software in the field of
 computational chemistry and represents and warrants to the
 licensee that it is not a competitor of Gaussian, Inc. and that
 it will not use this program in any manner prohibited above.
 ---------------------------------------------------------------
  

 Cite this work as:
 Gaussian 09, Revision C.01,
 M. J. Frisch, G. W. Trucks, H. B. Schlegel, G. E. Scuseria, 
 M. A. Robb, J. R. Cheeseman, G. Scalmani, V. Barone, B. Mennucci, 
 G. A. Petersson, H. Nakatsuji, M. Caricato, X. Li, H. P. Hratchian, 
 A. F. Izmaylov, J. Bloino, G. Zheng, J. L. Sonnenberg, M. Hada, 
 M. Ehara, K. Toyota, R. Fukuda, J. Hasegawa, M. Ishida, T. Nakajima, 
 Y. Honda, O. Kitao, H. Nakai, T. Vreven, J. A. Montgomery, Jr., 
 J. E. Peralta, F. Ogliaro, M. Bearpark, J. J. Heyd, E. Brothers, 
 K. N. Kudin, V. N. Staroverov, T. Keith, R. Kobayashi, J. Normand, 
 K. Raghavachari, A. Rendell, J. C. Burant, S. S. Iyengar, J. Tomasi, 
 M. Cossi, N. Rega, J. M. Millam, M. Klene, J. E. Knox, J. B. Cross, 
 V. Bakken, C. Adamo, J. Jaramillo, R. Gomperts, R. E. Stratmann, 
 O. Yazyev, A. J. Austin, R. Cammi, C. Pomelli, J. W. Ochterski, 
 R. L. Martin, K. Morokuma, V. G. Zakrzewski, G. A. Voth, 
 P. Salvador, J. J. Dannenberg, S. Dapprich, A. D. Daniels, 
 O. Farkas, J. B. Foresman, J. V. Ortiz, J. Cioslowski, 
 and D. J. Fox, Gaussian, Inc., Wallingford CT, 2010.
 
 ******************************************
 Gaussian 09:  EM64L-G09RevC.01 23-Sep-2011
                26-Jun-2022 
 ******************************************
 %chk=mol_5.chk
 ----------------------------
 # hf/3-21g geom=connectivity
 ----------------------------
 1/38=1,57=2/1;
 2/12=2,17=6,18=5,40=1/2;
 3/5=5,11=9,16=1,25=1,30=1/1,2,3;
 4//1;
 5/5=2,38=5/2;
 6/7=2,8=2,9=2,10=2,28=1/1;
 99/5=1,9=1/99;
 -----
 mol_5
 -----
 Charge =  0 Multiplicity = 1
 Symbolic Z-Matrix:
 C                     7.6262    4.83877  -1.92207 
 C                     9.14805   4.83877  -1.92207 
 C                     9.61683   6.28664  -1.92207 
 C                     8.38909   7.1762   -2.05526 
 C                     7.15699   6.28309  -2.02566 
 H                     7.23608   4.36836  -0.98457 
 H                     9.53668   4.30417  -2.82535 
 H                     9.54142   4.29804  -1.02523 
 H                     10.16376   6.51833  -0.97348 
 H                     10.32879   6.46981  -2.76529 
 H                     8.35341   7.92227  -1.22227 
 H                     8.42821   7.75379  -3.01299 
 H                     6.54524   6.43071  -2.95086 
 C                     7.08671   4.00958  -3.10232 
 H                     6.01689   4.02372  -3.08863 
 H                     7.4372    4.42866  -4.02234 
 C                     7.58252   2.55688  -2.97815 
 H                     8.54663   2.46888  -3.43385 
 H                     7.65113   2.29058  -1.94409 
 C                     6.59199   1.61409  -3.6864 
 H                     5.64964   1.64137  -3.1803 
 H                     6.4616    1.93015  -4.7003 
 C                     7.14541   0.17714  -3.66377 
 H                     8.07951   0.14645  -4.18475 
 H                     7.292    -0.13268  -2.65015 
 C                     6.14345  -0.7697   -4.35017 
 H                     5.99239  -0.4564   -5.36206 
 H                     6.53062  -1.76714  -4.33965 
 H                     5.21116  -0.74344  -3.82571 
 C                     6.25918   6.64339  -0.82744 
 H                     6.0372    7.68986  -0.85004 
 H                     5.34855   6.08433  -0.88326 
 H                     6.76799   6.4063    0.08349 
 
                          Input orientation:                          
 ---------------------------------------------------------------------
 Center     Atomic      Atomic             Coordinates (Angstroms)
 Number     Number       Type             X           Y           Z
 ---------------------------------------------------------------------
      1          6           0        7.626197    4.838772   -1.922072
      2          6           0        9.148055    4.838772   -1.922072
      3          6           0        9.616827    6.286637   -1.922072
      4          6           0        8.389088    7.176205   -2.055258
      5          6           0        7.156991    6.283092   -2.025662
      6          1           0        7.236082    4.368361   -0.984568
      7          1           0        9.536682    4.304174   -2.825352
      8          1           0        9.541422    4.298040   -1.025235
      9          1           0       10.163763    6.518330   -0.973484
     10          1           0       10.328789    6.469813   -2.765288
     11          1           0        8.353411    7.922275   -1.222274
     12          1           0        8.428209    7.753790   -3.012994
     13          1           0        6.545245    6.430714   -2.950865
     14          6           0        7.086710    4.009581   -3.102325
     15          1           0        6.016891    4.023720   -3.088630
     16          1           0        7.437198    4.428664   -4.022339
     17          6           0        7.582521    2.556876   -2.978154
     18          1           0        8.546626    2.468878   -3.433848
     19          1           0        7.651133    2.290581   -1.944094
     20          6           0        6.591993    1.614090   -3.686396
     21          1           0        5.649642    1.641374   -3.180304
     22          1           0        6.461603    1.930151   -4.700301
     23          6           0        7.145410    0.177142   -3.663768
     24          1           0        8.079508    0.146446   -4.184747
     25          1           0        7.292000   -0.132685   -2.650151
     26          6           0        6.143445   -0.769705   -4.350169
     27          1           0        5.992388   -0.456401   -5.362059
     28          1           0        6.530619   -1.767144   -4.339647
     29          1           0        5.211159   -0.743444   -3.825715
     30          6           0        6.259181    6.643387   -0.827444
     31          1           0        6.037199    7.689864   -0.850037
     32          1           0        5.348553    6.084332   -0.883260
     33          1           0        6.767987    6.406299    0.083492
 ---------------------------------------------------------------------
                    Distance matrix (angstroms):
                    1          2          3          4          5
     1  C    0.000000
     2  C    1.521858   0.000000
     3  C    2.461488   1.521861   0.000000
     4  C    2.462384   2.461171   1.521977   0.000000
     5  C    1.522152   2.461936   2.462020   1.522035   0.000000
     6  H    1.119102   2.180789   3.197913   3.218662   2.180900
     7  H    2.179831   1.119259   2.180022   3.187253   3.196647
     8  H    2.182841   1.118680   2.182778   3.266903   3.259877
     9  H    3.187472   2.179999   1.119213   2.180024   3.194228
    10  H    3.267310   2.182989   1.118685   2.183019   3.262241
    11  H    3.244464   3.260240   2.182029   1.118819   2.182607
    12  H    3.214135   3.194623   2.180703   1.119104   2.180315
    13  H    2.182006   3.219831   3.242498   2.181198   1.118940
    14  C    1.540000   2.515889   3.602704   3.580509   2.516544
    15  H    2.148263   3.439383   4.409217   4.078399   2.744902
    16  H    2.148263   2.739771   3.551615   3.510625   2.739369
    17  C    2.514809   2.961968   4.377765   4.779172   3.869496
    18  H    2.957881   2.874645   4.243358   4.907572   4.296779
    19  H    2.548408   2.955425   4.453415   4.942293   4.023801
    20  C    3.818507   4.477150   5.839106   6.068549   4.987669
    21  H    3.963997   4.903610   6.237001   6.277312   5.015062
    22  H    4.187471   4.836906   6.054170   6.183246   5.156099
    23  C    4.999545   5.364222   6.816695   7.288410   6.321878
    24  H    5.229064   5.317839   6.721979   7.351740   6.570473
    25  H    5.035590   5.356344   6.866048   7.414672   6.447511
    26  C    6.288817   6.810165   8.231160   8.570123   7.494835
    27  H    6.522400   7.059079   8.392773   8.656545   7.609771
    28  H    7.119206   7.505583   8.957273   9.415723   8.399594
    29  H    6.373178   7.091131   8.512098   8.715193   7.509904
    30  C    2.514672   3.577770   3.549545   2.515537   1.540000
    31  H    3.435534   4.353780   3.991496   2.692170   2.148263
    32  H    2.796106   4.131194   4.397525   3.436657   2.148263
    33  H    2.686252   3.484846   3.486043   2.791948   2.148263
                    6          7          8          9         10
     6  H    0.000000
     7  H    2.947095   0.000000
     8  H    2.306771   1.800134   0.000000
     9  H    3.632328   2.953834   2.306442   0.000000
    10  H    4.141485   2.306737   2.892115   1.800041   0.000000
    11  H    3.732992   4.130453   3.819067   2.304416   2.897008
    12  H    4.122719   3.628191   4.139159   2.949256   2.306981
    13  H    2.932044   3.672414   4.151316   4.124486   3.788294
    14  C    2.153121   2.483115   3.228486   4.504890   4.083798
    15  H    2.456070   3.540748   4.093308   5.281427   4.967935
    16  H    3.045019   2.419940   3.664349   4.593079   3.756030
    17  C    2.715858   2.625860   3.268461   5.135623   4.785224
    18  H    3.365195   2.172277   3.183845   5.006654   4.430638
    19  H    2.325968   2.895940   2.906439   5.012909   5.030922
    20  C    3.911616   4.080336   4.794215   6.645977   6.195977
    21  H    3.843762   4.724995   5.181520   7.002288   6.736503
    22  H    4.511248   4.313644   5.347737   6.974707   6.269604
    23  C    4.975203   4.842882   5.448351   7.520554   7.109069
    24  H    5.364427   4.610641   5.418066   7.433521   6.859963
    25  H    4.799657   4.975440   5.227960   7.436009   7.268309
    26  C    6.238657   6.291531   6.948631   8.982227   8.511144
    27  H    6.632310   6.454454   7.349040   9.236170   8.574382
    28  H    7.028418   6.941931   7.539013   9.652972   9.206094
    29  H    6.188940   6.722300   7.211825   9.241042   8.907621
    30  C    2.480880   4.495060   4.038920   3.909313   4.510773
    31  H    3.533808   5.254630   4.880035   4.291417   4.855353
    32  H    2.552956   4.947838   4.559730   4.835570   5.337918
    33  H    2.347990   4.532766   3.655950   3.558235   4.560580
                   11         12         13         14         15
    11  H    0.000000
    12  H    1.800183   0.000000
    13  H    2.912429   2.302161   0.000000
    14  C    4.521979   3.978278   2.485560   0.000000
    15  H    4.913384   4.442251   2.468148   1.070000   0.000000
    16  H    4.570025   3.613494   2.439640   1.070000   1.747303
    17  C    5.697797   5.265388   4.010400   1.540000   2.148263
    18  H    5.887948   5.302965   4.464857   2.148263   2.989360
    19  H    5.721031   5.620769   4.401963   2.148263   2.642817
    20  C    6.997692   6.443685   4.872685   2.514809   2.548409
    21  H    7.112943   6.716402   4.877758   2.771219   2.412229
    22  H    7.182003   6.374113   4.829347   2.695982   2.679232
    23  C    8.210191   7.711982   6.322625   3.873791   4.049753
    24  H    8.325550   7.704952   6.585473   4.132929   4.526491
    25  H    8.249109   7.976159   6.612584   4.171927   4.369653
    26  C    9.498326   8.925141   7.346123   5.028761   4.958268
    27  H    9.639215   8.880234   7.317914   5.123372   5.023999
    28  H   10.340475   9.798421   8.314675   5.933866   5.946686
    29  H    9.578430   9.122111   7.349400   5.160642   4.890639
    30  C    2.485406   3.273271   2.153132   3.577264   3.469051
    31  H    2.357416   3.224809   2.501408   4.440580   4.295616
    32  H    3.538662   4.099650   2.413926   3.500004   3.091351
    33  H    2.552797   3.763016   3.042619   3.999409   4.037721
                   16         17         18         19         20
    16  H    0.000000
    17  C    2.148263   0.000000
    18  H    2.327642   1.070000   0.000000
    19  H    2.989360   1.070000   1.747303   0.000000
    20  C    2.957881   1.540000   2.148263   2.148263   0.000000
    21  H    3.416631   2.148263   3.023503   2.440420   1.070000
    22  H    2.766584   2.148263   2.498290   3.023503   1.070000
    23  C    4.276582   2.514809   2.695982   2.771219   1.540000
    24  H    4.333167   2.740992   2.485103   3.130710   2.148263
    25  H    4.765489   2.725018   2.992724   2.549452   2.148263
    26  C    5.366965   3.875501   4.135618   4.174645   2.514809
    27  H    5.267465   4.158289   4.335826   4.688265   2.730257
    28  H    6.269818   4.653742   4.777933   4.843486   3.444306
    29  H    5.634236   4.151365   4.647355   4.324265   2.735704
    30  C    4.062029   4.803785   5.426995   4.704398   5.794670
    31  H    4.760139   5.767535   6.342870   5.740557   6.728132
    32  H    4.117948   4.671417   5.459366   4.562871   5.420958
    33  H    4.606163   4.985499   5.571223   4.672279   6.099861
                   21         22         23         24         25
    21  H    0.000000
    22  H    1.747303   0.000000
    23  C    2.148263   2.148263   0.000000
    24  H    3.024560   2.462725   1.070000   0.000000
    25  H    2.475012   3.024560   1.070000   1.747303   0.000000
    26  C    2.725019   2.740992   1.540000   2.148263   2.148263
    27  H    3.046012   2.520658   2.148263   2.470943   3.024604
    28  H    3.706507   3.715485   2.148263   2.466754   2.470943
    29  H    2.509218   3.078412   2.148263   3.024605   2.466754
    30  C    5.561260   6.103654   7.116351   7.536267   7.092540
    31  H    6.493425   6.941105   8.098530   8.496733   8.124481
    32  H    5.010683   5.750296   6.771618   7.322323   6.749088
    33  H    5.882820   6.558541   7.279203   7.689195   7.106737
                   26         27         28         29         30
    26  C    0.000000
    27  H    1.070000   0.000000
    28  H    1.070000   1.747303   0.000000
    29  H    1.070000   1.747303   1.747303   0.000000
    30  C    8.208344   8.428576   9.118458   8.040724   0.000000
    31  H    9.155682   9.312463  10.092366   8.980961   1.070000
    32  H    7.721990   7.953323   8.659652   7.436090   1.070000
    33  H    8.458276   8.795012   9.296542   8.296049   1.070000
                   31         32         33
    31  H    0.000000
    32  H    1.747303   0.000000
    33  H    1.747303   1.747303   0.000000
 Stoichiometry    C11H22
 Framework group  C1[X(C11H22)]
 Deg. of freedom    93
 Full point group                 C1      NOp   1
 Largest Abelian subgroup         C1      NOp   1
 Largest concise Abelian subgroup C1      NOp   1
                         Standard orientation:                         
 ---------------------------------------------------------------------
 Center     Atomic      Atomic             Coordinates (Angstroms)
 Number     Number       Type             X           Y           Z
 ---------------------------------------------------------------------
      1          6           0       -1.107923    0.128132   -0.313057
      2          6           0       -1.419077   -1.355029   -0.452580
      3          6           0       -2.848385   -1.580529    0.018896
      4          6           0       -3.372477   -0.262784    0.571429
      5          6           0       -2.307836    0.799923    0.339516
      6          1           0       -0.905827    0.580427   -1.316539
      7          1           0       -0.706618   -1.961087    0.162105
      8          1           0       -1.298918   -1.683920   -1.515048
      9          1           0       -3.488180   -1.927528   -0.831336
     10          1           0       -2.883014   -2.377572    0.803101
     11          1           0       -4.328548    0.022047    0.064918
     12          1           0       -3.594806   -0.359062    1.663991
     13          1           0       -2.011890    1.274369    1.308713
     14          6           0        0.157464    0.336008    0.539694
     15          1           0        0.358633    1.383035    0.630058
     16          1           0        0.004943   -0.083121    1.512302
     17          6           0        1.352835   -0.359818   -0.137443
     18          1           0        1.387886   -1.385052    0.166806
     19          1           0        1.241132   -0.306803   -1.200275
     20          6           0        2.658526    0.343624    0.277214
     21          1           0        2.658230    1.345872   -0.097484
     22          1           0        2.730342    0.361934    1.344644
     23          6           0        3.861281   -0.421776   -0.305147
     24          1           0        3.871344   -1.418864    0.082944
     25          1           0        3.780507   -0.454924   -1.371578
     26          6           0        5.165807    0.295593    0.088798
     27          1           0        5.243720    0.333922    1.155269
     28          1           0        6.001786   -0.239464   -0.310893
     29          1           0        5.158306    1.290754   -0.304267
     30          6           0       -2.853469    1.920695   -0.564782
     31          1           0       -3.764382    2.300699   -0.151582
     32          1           0       -2.133893    2.710069   -0.628016
     33          1           0       -3.041241    1.530034   -1.543059
 ---------------------------------------------------------------------
 Rotational constants (GHZ):      2.5690168      0.3864480      0.3552064
 Standard basis: 3-21G (6D, 7F)
 There are   143 symmetry adapted basis functions of A   symmetry.
 Integral buffers will be    131072 words long.
 Raffenetti 1 integral format.
 Two-electron integral symmetry is turned on.
   143 basis functions,   231 primitive gaussians,   143 cartesian basis functions
    44 alpha electrons       44 beta electrons
       nuclear repulsion energy       642.9140957853 Hartrees.
 NAtoms=   33 NActive=   33 NUniq=   33 SFac= 1.00D+00 NAtFMM=   60 NAOKFM=F Big=F
 One-electron integrals computed using PRISM.
 NBasis=   143 RedAO= T  NBF=   143
 NBsUse=   143 1.00D-06 NBFU=   143
 Harris functional with IExCor=  205 diagonalized for initial guess.
 ExpMin= 1.83D-01 ExpMax= 1.72D+02 ExpMxC= 1.72D+02 IAcc=1 IRadAn=         1 AccDes= 0.00D+00
 HarFok:  IExCor=  205 AccDes= 0.00D+00 IRadAn=         1 IDoV= 1
 ScaDFX=  1.000000  1.000000  1.000000  1.000000
 FoFCou: FMM=F IPFlag=           0 FMFlag=      100000 FMFlg1=           0
         NFxFlg=           0 DoJE=T BraDBF=F KetDBF=T FulRan=T
         Omega=  0.000000  0.000000  1.000000  0.000000  0.000000 ICntrl=     500 IOpCl=  0
         NMat0=    1 NMatS0=    1 NMatT0=    0 NMatD0=    1 NMtDS0=    0 NMtDT0=    0
         I1Cent=           4 NGrid=           0.
 Petite list used in FoFCou.
 Initial guess orbital symmetries:
       Occupied  (A) (A) (A) (A) (A) (A) (A) (A) (A) (A) (A) (A)
                 (A) (A) (A) (A) (A) (A) (A) (A) (A) (A) (A) (A)
                 (A) (A) (A) (A) (A) (A) (A) (A) (A) (A) (A) (A)
                 (A) (A) (A) (A) (A) (A) (A) (A)
       Virtual   (A) (A) (A) (A) (A) (A) (A) (A) (A) (A) (A) (A)
                 (A) (A) (A) (A) (A) (A) (A) (A) (A) (A) (A) (A)
                 (A) (A) (A) (A) (A) (A) (A) (A) (A) (A) (A) (A)
                 (A) (A) (A) (A) (A) (A) (A) (A) (A) (A) (A) (A)
                 (A) (A) (A) (A) (A) (A) (A) (A) (A) (A) (A) (A)
                 (A) (A) (A) (A) (A) (A) (A) (A) (A) (A) (A) (A)
                 (A) (A) (A) (A) (A) (A) (A) (A) (A) (A) (A) (A)
                 (A) (A) (A) (A) (A) (A) (A) (A) (A) (A) (A) (A)
                 (A) (A) (A)
 The electronic state of the initial guess is 1-A.
 Requested convergence on RMS density matrix=1.00D-08 within 128 cycles.
 Requested convergence on MAX density matrix=1.00D-06.
 Requested convergence on             energy=1.00D-06.
 No special actions if energy rises.
 Integral accuracy reduced to 1.0D-05 until final iterations.
 Initial convergence to 1.0D-05 achieved.  Increase integral accuracy.
 SCF Done:  E(RHF) =  -426.977173532     A.U. after   11 cycles
             Convg  =    0.6891D-08             -V/T =  2.0004

 **********************************************************************

            Population analysis using the SCF density.

 **********************************************************************

 Orbital symmetries:
       Occupied  (A) (A) (A) (A) (A) (A) (A) (A) (A) (A) (A) (A)
                 (A) (A) (A) (A) (A) (A) (A) (A) (A) (A) (A) (A)
                 (A) (A) (A) (A) (A) (A) (A) (A) (A) (A) (A) (A)
                 (A) (A) (A) (A) (A) (A) (A) (A)
       Virtual   (A) (A) (A) (A) (A) (A) (A) (A) (A) (A) (A) (A)
                 (A) (A) (A) (A) (A) (A) (A) (A) (A) (A) (A) (A)
                 (A) (A) (A) (A) (A) (A) (A) (A) (A) (A) (A) (A)
                 (A) (A) (A) (A) (A) (A) (A) (A) (A) (A) (A) (A)
                 (A) (A) (A) (A) (A) (A) (A) (A) (A) (A) (A) (A)
                 (A) (A) (A) (A) (A) (A) (A) (A) (A) (A) (A) (A)
                 (A) (A) (A) (A) (A) (A) (A) (A) (A) (A) (A) (A)
                 (A) (A) (A) (A) (A) (A) (A) (A) (A) (A) (A) (A)
                 (A) (A) (A)
 The electronic state is 1-A.
 Alpha  occ. eigenvalues --  -11.15682 -11.15586 -11.15529 -11.15387 -11.15349
 Alpha  occ. eigenvalues --  -11.14946 -11.14793 -11.14598 -11.14541 -11.14089
 Alpha  occ. eigenvalues --  -11.14025  -1.13822  -1.08408  -1.03227  -1.00883
 Alpha  occ. eigenvalues --   -0.96721  -0.91038  -0.87812  -0.81765  -0.79773
 Alpha  occ. eigenvalues --   -0.75567  -0.74313  -0.66101  -0.64580  -0.63653
 Alpha  occ. eigenvalues --   -0.60399  -0.58677  -0.57512  -0.57197  -0.55500
 Alpha  occ. eigenvalues --   -0.54812  -0.53231  -0.51874  -0.49799  -0.48521
 Alpha  occ. eigenvalues --   -0.47366  -0.46986  -0.46569  -0.46185  -0.44595
 Alpha  occ. eigenvalues --   -0.43745  -0.43148  -0.42564  -0.39622
 Alpha virt. eigenvalues --    0.23514   0.24048   0.26670   0.28727   0.29557
 Alpha virt. eigenvalues --    0.30381   0.31260   0.32674   0.32845   0.33402
 Alpha virt. eigenvalues --    0.34323   0.35290   0.35476   0.35818   0.36496
 Alpha virt. eigenvalues --    0.37083   0.37940   0.38241   0.39381   0.39770
 Alpha virt. eigenvalues --    0.40834   0.41691   0.42423   0.43105   0.43365
 Alpha virt. eigenvalues --    0.45982   0.48386   0.50225   0.51204   0.53666
 Alpha virt. eigenvalues --    0.55643   0.56478   0.59482   0.89753   0.90325
 Alpha virt. eigenvalues --    0.91483   0.92449   0.94119   0.95656   0.97363
 Alpha virt. eigenvalues --    0.98318   1.00224   1.01457   1.02562   1.04693
 Alpha virt. eigenvalues --    1.06076   1.06455   1.07358   1.09072   1.09411
 Alpha virt. eigenvalues --    1.10798   1.13768   1.14756   1.15046   1.18912
 Alpha virt. eigenvalues --    1.20980   1.22238   1.24318   1.26276   1.28372
 Alpha virt. eigenvalues --    1.30190   1.30522   1.31727   1.32062   1.32211
 Alpha virt. eigenvalues --    1.34541   1.35190   1.37298   1.38315   1.38956
 Alpha virt. eigenvalues --    1.39134   1.39542   1.40163   1.40823   1.42070
 Alpha virt. eigenvalues --    1.42670   1.45223   1.46399   1.46697   1.47960
 Alpha virt. eigenvalues --    1.48269   1.48884   1.49982   1.54350   1.63577
 Alpha virt. eigenvalues --    1.68247   1.78278   1.83801   1.86364   1.96962
 Alpha virt. eigenvalues --    2.10967   2.16416   2.27802   2.35393   2.42895
 Alpha virt. eigenvalues --    2.55938   2.78440   2.80352   2.98176
          Condensed to atoms (all electrons):
              1          2          3          4          5          6
     1  C    5.739332   0.209426  -0.088580  -0.090113   0.200730   0.411100
     2  C    0.209426   5.550925   0.213263  -0.087747  -0.088388  -0.041538
     3  C   -0.088580   0.213263   5.528472   0.211198  -0.090815   0.003085
     4  C   -0.090113  -0.087747   0.211198   5.547763   0.211938   0.003532
     5  C    0.200730  -0.088388  -0.090815   0.211938   5.713007  -0.044312
     6  H    0.411100  -0.041538   0.003085   0.003532  -0.044312   0.507999
     7  H   -0.048346   0.396384  -0.043927   0.003364   0.003741   0.002329
     8  H   -0.042578   0.391983  -0.041210   0.003667   0.003592  -0.004219
     9  H    0.003265  -0.043869   0.392979  -0.043849   0.003696  -0.000085
    10  H    0.003775  -0.042648   0.393260  -0.042214   0.003473  -0.000046
    11  H    0.003906   0.003491  -0.042977   0.396738  -0.046933  -0.000100
    12  H    0.003566   0.003567  -0.042674   0.391714  -0.043160  -0.000054
    13  H   -0.045569   0.003681   0.003165  -0.041281   0.411060   0.002163
    14  C    0.248602  -0.080157   0.005922   0.005197  -0.077196  -0.045107
    15  H   -0.047728   0.004123  -0.000138   0.000090  -0.002389  -0.001100
    16  H   -0.048235  -0.000881   0.000259   0.000101  -0.000782   0.003103
    17  C   -0.079084  -0.007840   0.000087  -0.000179   0.005252  -0.002703
    18  H    0.000283   0.000637   0.000016   0.000008  -0.000117   0.000143
    19  H   -0.003706  -0.000136  -0.000008  -0.000003   0.000147   0.003096
    20  C    0.004571   0.000117  -0.000001   0.000001  -0.000096   0.000032
    21  H   -0.000055  -0.000005   0.000000   0.000000  -0.000003   0.000026
    22  H    0.000027  -0.000001   0.000000   0.000000   0.000000   0.000000
    23  C   -0.000105   0.000002   0.000000   0.000000   0.000000  -0.000003
    24  H    0.000000  -0.000001   0.000000   0.000000   0.000000   0.000000
    25  H    0.000001   0.000000   0.000000   0.000000   0.000000  -0.000001
    26  C    0.000000   0.000000   0.000000   0.000000   0.000000   0.000000
    27  H    0.000000   0.000000   0.000000   0.000000   0.000000   0.000000
    28  H    0.000000   0.000000   0.000000   0.000000   0.000000   0.000000
    29  H    0.000000   0.000000   0.000000   0.000000   0.000000   0.000000
    30  C   -0.083571   0.004988   0.006384  -0.082262   0.256187  -0.007517
    31  H    0.004614  -0.000164   0.000086  -0.002894  -0.047445   0.000284
    32  H   -0.001337   0.000053  -0.000172   0.004410  -0.046991   0.000648
    33  H   -0.002571   0.000277   0.000250  -0.000266  -0.050453   0.001680
              7          8          9         10         11         12
     1  C   -0.048346  -0.042578   0.003265   0.003775   0.003906   0.003566
     2  C    0.396384   0.391983  -0.043869  -0.042648   0.003491   0.003567
     3  C   -0.043927  -0.041210   0.392979   0.393260  -0.042977  -0.042674
     4  C    0.003364   0.003667  -0.043849  -0.042214   0.396738   0.391714
     5  C    0.003741   0.003592   0.003696   0.003473  -0.046933  -0.043160
     6  H    0.002329  -0.004219  -0.000085  -0.000046  -0.000100  -0.000054
     7  H    0.511324  -0.022763   0.002355  -0.004929  -0.000049  -0.000093
     8  H   -0.022763   0.509379  -0.005220   0.001909  -0.000099  -0.000056
     9  H    0.002355  -0.005220   0.514243  -0.022541  -0.005194   0.002287
    10  H   -0.004929   0.001909  -0.022541   0.510279   0.002054  -0.005200
    11  H   -0.000049  -0.000099  -0.005194   0.002054   0.511611  -0.022651
    12  H   -0.000093  -0.000056   0.002287  -0.005200  -0.022651   0.512307
    13  H   -0.000109  -0.000052  -0.000048  -0.000084   0.002162  -0.004360
    14  C   -0.007802   0.002654  -0.000058  -0.000177  -0.000067  -0.000156
    15  H    0.000273  -0.000086   0.000001   0.000002   0.000000   0.000002
    16  H    0.001514   0.000005  -0.000001  -0.000020  -0.000003   0.000001
    17  C   -0.002331   0.000212  -0.000002   0.000005   0.000001   0.000002
    18  H    0.002549  -0.000164   0.000000  -0.000005   0.000000   0.000000
    19  H    0.000217   0.000125   0.000000   0.000000   0.000000   0.000000
    20  C    0.000043   0.000001   0.000000   0.000000   0.000000   0.000000
    21  H   -0.000002   0.000000   0.000000   0.000000   0.000000   0.000000
    22  H   -0.000003   0.000000   0.000000   0.000000   0.000000   0.000000
    23  C    0.000000   0.000000   0.000000   0.000000   0.000000   0.000000
    24  H   -0.000003   0.000000   0.000000   0.000000   0.000000   0.000000
    25  H    0.000000   0.000000   0.000000   0.000000   0.000000   0.000000
    26  C    0.000000   0.000000   0.000000   0.000000   0.000000   0.000000
    27  H    0.000000   0.000000   0.000000   0.000000   0.000000   0.000000
    28  H    0.000000   0.000000   0.000000   0.000000   0.000000   0.000000
    29  H    0.000000   0.000000   0.000000   0.000000   0.000000   0.000000
    30  C   -0.000068  -0.000159  -0.000175  -0.000059  -0.007970   0.002908
    31  H    0.000001   0.000001   0.000003  -0.000001   0.001176   0.000107
    32  H    0.000000   0.000001   0.000001   0.000001   0.000259  -0.000090
    33  H   -0.000004  -0.000020  -0.000007  -0.000002   0.001246  -0.000022
             13         14         15         16         17         18
     1  C   -0.045569   0.248602  -0.047728  -0.048235  -0.079084   0.000283
     2  C    0.003681  -0.080157   0.004123  -0.000881  -0.007840   0.000637
     3  C    0.003165   0.005922  -0.000138   0.000259   0.000087   0.000016
     4  C   -0.041281   0.005197   0.000090   0.000101  -0.000179   0.000008
     5  C    0.411060  -0.077196  -0.002389  -0.000782   0.005252  -0.000117
     6  H    0.002163  -0.045107  -0.001100   0.003103  -0.002703   0.000143
     7  H   -0.000109  -0.007802   0.000273   0.001514  -0.002331   0.002549
     8  H   -0.000052   0.002654  -0.000086   0.000005   0.000212  -0.000164
     9  H   -0.000048  -0.000058   0.000001  -0.000001  -0.000002   0.000000
    10  H   -0.000084  -0.000177   0.000002  -0.000020   0.000005  -0.000005
    11  H    0.002162  -0.000067   0.000000  -0.000003   0.000001   0.000000
    12  H   -0.004360  -0.000156   0.000002   0.000001   0.000002   0.000000
    13  H    0.505881  -0.006214   0.000876   0.001398   0.000253  -0.000002
    14  C   -0.006214   5.467993   0.397051   0.389616   0.236299  -0.043550
    15  H    0.000876   0.397051   0.512687  -0.024089  -0.048419   0.002992
    16  H    0.001398   0.389616  -0.024089   0.517939  -0.045172  -0.003133
    17  C    0.000253   0.236299  -0.048419  -0.045172   5.500628   0.387614
    18  H   -0.000002  -0.043550   0.002992  -0.003133   0.387614   0.511647
    19  H    0.000005  -0.049023   0.000743   0.003118   0.391709  -0.025040
    20  C   -0.000009  -0.076092  -0.004170   0.000999   0.251745  -0.045835
    21  H    0.000000  -0.001815   0.002357   0.000065  -0.045458   0.003191
    22  H    0.000000  -0.001098   0.000272   0.001028  -0.046872  -0.001218
    23  C    0.000000   0.004696   0.000115  -0.000098  -0.082363  -0.001387
    24  H    0.000000  -0.000060   0.000000   0.000007  -0.001139   0.002467
    25  H    0.000000  -0.000024   0.000003  -0.000001  -0.001082   0.000084
    26  C    0.000000  -0.000096  -0.000004   0.000001   0.004607  -0.000014
    27  H    0.000000   0.000000   0.000000   0.000000  -0.000040   0.000004
    28  H    0.000000   0.000001   0.000000   0.000000  -0.000089   0.000001
    29  H    0.000000   0.000000  -0.000001   0.000000  -0.000045   0.000001
    30  C   -0.043089   0.004527   0.000160   0.000049  -0.000134   0.000000
    31  H   -0.000723  -0.000116  -0.000011   0.000003   0.000001   0.000000
    32  H   -0.002090   0.000175   0.000423  -0.000003  -0.000015   0.000000
    33  H    0.003173   0.000066  -0.000003  -0.000001   0.000002   0.000000
             19         20         21         22         23         24
     1  C   -0.003706   0.004571  -0.000055   0.000027  -0.000105   0.000000
     2  C   -0.000136   0.000117  -0.000005  -0.000001   0.000002  -0.000001
     3  C   -0.000008  -0.000001   0.000000   0.000000   0.000000   0.000000
     4  C   -0.000003   0.000001   0.000000   0.000000   0.000000   0.000000
     5  C    0.000147  -0.000096  -0.000003   0.000000   0.000000   0.000000
     6  H    0.003096   0.000032   0.000026   0.000000  -0.000003   0.000000
     7  H    0.000217   0.000043  -0.000002  -0.000003   0.000000  -0.000003
     8  H    0.000125   0.000001   0.000000   0.000000   0.000000   0.000000
     9  H    0.000000   0.000000   0.000000   0.000000   0.000000   0.000000
    10  H    0.000000   0.000000   0.000000   0.000000   0.000000   0.000000
    11  H    0.000000   0.000000   0.000000   0.000000   0.000000   0.000000
    12  H    0.000000   0.000000   0.000000   0.000000   0.000000   0.000000
    13  H    0.000005  -0.000009   0.000000   0.000000   0.000000   0.000000
    14  C   -0.049023  -0.076092  -0.001815  -0.001098   0.004696  -0.000060
    15  H    0.000743  -0.004170   0.002357   0.000272   0.000115   0.000000
    16  H    0.003118   0.000999   0.000065   0.001028  -0.000098   0.000007
    17  C    0.391709   0.251745  -0.045458  -0.046872  -0.082363  -0.001139
    18  H   -0.025040  -0.045835   0.003191  -0.001218  -0.001387   0.002467
    19  H    0.514743  -0.045975  -0.001917   0.003248  -0.000868   0.000079
    20  C   -0.045975   5.471306   0.388352   0.388541   0.251634  -0.046965
    21  H   -0.001917   0.388352   0.519676  -0.025891  -0.046376   0.003294
    22  H    0.003248   0.388541  -0.025891   0.520336  -0.046464  -0.001789
    23  C   -0.000868   0.251634  -0.046376  -0.046464   5.458304   0.388458
    24  H    0.000079  -0.046965   0.003294  -0.001789   0.388458   0.519137
    25  H    0.002119  -0.047240  -0.001672   0.003316   0.388825  -0.025928
    26  C   -0.000045  -0.087958  -0.000987  -0.000871   0.252693  -0.043579
    27  H    0.000000  -0.001927   0.000044   0.002517  -0.047081  -0.001840
    28  H    0.000001   0.004128  -0.000027  -0.000035  -0.043772  -0.001616
    29  H    0.000005  -0.001911   0.002593   0.000046  -0.047079   0.003319
    30  C   -0.000007   0.000002   0.000000   0.000000   0.000000   0.000000
    31  H    0.000000   0.000000   0.000000   0.000000   0.000000   0.000000
    32  H    0.000000   0.000000   0.000000   0.000000   0.000000   0.000000
    33  H   -0.000001   0.000000   0.000000   0.000000   0.000000   0.000000
             25         26         27         28         29         30
     1  C    0.000001   0.000000   0.000000   0.000000   0.000000  -0.083571
     2  C    0.000000   0.000000   0.000000   0.000000   0.000000   0.004988
     3  C    0.000000   0.000000   0.000000   0.000000   0.000000   0.006384
     4  C    0.000000   0.000000   0.000000   0.000000   0.000000  -0.082262
     5  C    0.000000   0.000000   0.000000   0.000000   0.000000   0.256187
     6  H   -0.000001   0.000000   0.000000   0.000000   0.000000  -0.007517
     7  H    0.000000   0.000000   0.000000   0.000000   0.000000  -0.000068
     8  H    0.000000   0.000000   0.000000   0.000000   0.000000  -0.000159
     9  H    0.000000   0.000000   0.000000   0.000000   0.000000  -0.000175
    10  H    0.000000   0.000000   0.000000   0.000000   0.000000  -0.000059
    11  H    0.000000   0.000000   0.000000   0.000000   0.000000  -0.007970
    12  H    0.000000   0.000000   0.000000   0.000000   0.000000   0.002908
    13  H    0.000000   0.000000   0.000000   0.000000   0.000000  -0.043089
    14  C   -0.000024  -0.000096   0.000000   0.000001   0.000000   0.004527
    15  H    0.000003  -0.000004   0.000000   0.000000  -0.000001   0.000160
    16  H   -0.000001   0.000001   0.000000   0.000000   0.000000   0.000049
    17  C   -0.001082   0.004607  -0.000040  -0.000089  -0.000045  -0.000134
    18  H    0.000084  -0.000014   0.000004   0.000001   0.000001   0.000000
    19  H    0.002119  -0.000045   0.000000   0.000001   0.000005  -0.000007
    20  C   -0.047240  -0.087958  -0.001927   0.004128  -0.001911   0.000002
    21  H   -0.001672  -0.000987   0.000044  -0.000027   0.002593   0.000000
    22  H    0.003316  -0.000871   0.002517  -0.000035   0.000046   0.000000
    23  C    0.388825   0.252693  -0.047081  -0.043772  -0.047079   0.000000
    24  H   -0.025928  -0.043579  -0.001840  -0.001616   0.003319   0.000000
    25  H    0.519138  -0.043819   0.003324  -0.001535  -0.001892   0.000000
    26  C   -0.043819   5.368157   0.379574   0.381529   0.379533   0.000000
    27  H    0.003324   0.379574   0.518800  -0.025556  -0.026839   0.000000
    28  H   -0.001535   0.381529  -0.025556   0.513484  -0.025518   0.000000
    29  H   -0.001892   0.379533  -0.026839  -0.025518   0.518825   0.000000
    30  C    0.000000   0.000000   0.000000   0.000000   0.000000   5.352053
    31  H    0.000000   0.000000   0.000000   0.000000   0.000000   0.382987
    32  H    0.000000   0.000000   0.000000   0.000000   0.000000   0.381528
    33  H    0.000000   0.000000   0.000000   0.000000   0.000000   0.381440
             31         32         33
     1  C    0.004614  -0.001337  -0.002571
     2  C   -0.000164   0.000053   0.000277
     3  C    0.000086  -0.000172   0.000250
     4  C   -0.002894   0.004410  -0.000266
     5  C   -0.047445  -0.046991  -0.050453
     6  H    0.000284   0.000648   0.001680
     7  H    0.000001   0.000000  -0.000004
     8  H    0.000001   0.000001  -0.000020
     9  H    0.000003   0.000001  -0.000007
    10  H   -0.000001   0.000001  -0.000002
    11  H    0.001176   0.000259   0.001246
    12  H    0.000107  -0.000090  -0.000022
    13  H   -0.000723  -0.002090   0.003173
    14  C   -0.000116   0.000175   0.000066
    15  H   -0.000011   0.000423  -0.000003
    16  H    0.000003  -0.000003  -0.000001
    17  C    0.000001  -0.000015   0.000002
    18  H    0.000000   0.000000   0.000000
    19  H    0.000000   0.000000  -0.000001
    20  C    0.000000   0.000000   0.000000
    21  H    0.000000   0.000000   0.000000
    22  H    0.000000   0.000000   0.000000
    23  C    0.000000   0.000000   0.000000
    24  H    0.000000   0.000000   0.000000
    25  H    0.000000   0.000000   0.000000
    26  C    0.000000   0.000000   0.000000
    27  H    0.000000   0.000000   0.000000
    28  H    0.000000   0.000000   0.000000
    29  H    0.000000   0.000000   0.000000
    30  C    0.382987   0.381528   0.381440
    31  H    0.517307  -0.025507  -0.026157
    32  H   -0.025507   0.518074  -0.025709
    33  H   -0.026157  -0.025709   0.521420
 Mulliken atomic charges:
              1
     1  C   -0.251620
     2  C   -0.389542
     3  C   -0.407925
     4  C   -0.388915
     5  C   -0.273747
     6  H    0.207566
     7  H    0.206331
     8  H    0.203096
     9  H    0.202220
    10  H    0.203169
    11  H    0.203399
    12  H    0.202056
    13  H    0.209813
    14  C   -0.373990
    15  H    0.205966
    16  H    0.203212
    17  C   -0.415449
    18  H    0.208828
    19  H    0.207375
    20  C   -0.403292
    21  H    0.204610
    22  H    0.204912
    23  C   -0.429131
    24  H    0.206160
    25  H    0.206384
    26  C   -0.588719
    27  H    0.199019
    28  H    0.199004
    29  H    0.198965
    30  C   -0.548201
    31  H    0.196450
    32  H    0.196337
    33  H    0.195659
 Sum of Mulliken atomic charges =   0.00000
 Mulliken charges with hydrogens summed into heavy atoms:
              1
     1  C   -0.044054
     2  C    0.019885
     3  C   -0.002535
     4  C    0.016540
     5  C   -0.063935
    14  C    0.035189
    17  C    0.000754
    20  C    0.006230
    23  C   -0.016587
    26  C    0.008268
    30  C    0.040244
 Sum of Mulliken charges with hydrogens summed into heavy atoms =   0.00000
 Electronic spatial extent (au):  <R**2>=           3294.8456
 Charge=              0.0000 electrons
 Dipole moment (field-independent basis, Debye):
    X=              0.0187    Y=             -0.0161    Z=              0.0266  Tot=              0.0363
 Quadrupole moment (field-independent basis, Debye-Ang):
   XX=            -77.0877   YY=            -75.1468   ZZ=            -73.5805
   XY=             -0.2002   XZ=              0.0497   YZ=             -0.4348
 Traceless Quadrupole moment (field-independent basis, Debye-Ang):
   XX=             -1.8161   YY=              0.1249   ZZ=              1.6912
   XY=             -0.2002   XZ=              0.0497   YZ=             -0.4348
 Octapole moment (field-independent basis, Debye-Ang**2):
  XXX=             -6.9290  YYY=              0.9949  ZZZ=             -0.0302  XYY=              4.2358
  XXY=             -1.8217  XXZ=             -2.1219  XZZ=              0.4443  YZZ=             -1.2417
  YYZ=              1.6489  XYZ=             -2.0115
 Hexadecapole moment (field-independent basis, Debye-Ang**3):
 XXXX=          -3939.6146 YYYY=           -573.0447 ZZZZ=           -212.5888 XXXY=            -25.8362
 XXXZ=             -1.1310 YYYX=              2.0044 YYYZ=             -3.3341 ZZZX=              1.0996
 ZZZY=              1.1198 XXYY=           -745.6128 XXZZ=           -671.4596 YYZZ=           -131.7805
 XXYZ=              1.7037 YYXZ=             -4.5909 ZZXY=              3.5968
 N-N= 6.429140957853D+02 E-N=-2.278191502179D+03  KE= 4.268187777847D+02
 1\1\GINC-NODE02\SP\RHF\3-21G\C11H22\SC4102.04\26-Jun-2022\0\\# hf/3-21
 g geom=connectivity\\mol_5\\0,1\C,0,7.6261965,4.83877194,-1.9220716\C,
 0,9.1480545,4.83877194,-1.9220716\C,0,9.6168275,6.28663694,-1.9220716\
 C,0,8.3890875,7.17620494,-2.0552576\C,0,7.1569905,6.28309194,-2.025661
 6\H,0,7.2360815,4.36836094,-0.9845676\H,0,9.5366815,4.30417394,-2.8253
 516\H,0,9.5414215,4.29803994,-1.0252346\H,0,10.1637625,6.51832994,-0.9
 734836\H,0,10.3287885,6.46981294,-2.7652876\H,0,8.3534105,7.92227494,-
 1.2222736\H,0,8.4282085,7.75378994,-3.0129936\H,0,6.5452445,6.43071394
 ,-2.9508646\C,0,7.08670963,4.00958143,-3.10232455\H,0,6.01689069,4.023
 72015,-3.08862969\H,0,7.43719801,4.42866427,-4.02233949\C,0,7.58252119
 ,2.5568762,-2.97815378\H,0,8.54662631,2.46887784,-3.43384842\H,0,7.651
 13257,2.29058084,-1.94409417\C,0,6.59199291,1.61408961,-3.6863961\H,0,
 5.64964164,1.64137391,-3.18030357\H,0,6.46160308,1.93015098,-4.7003012
 7\C,0,7.1454102,0.17714241,-3.66376764\H,0,8.0795079,0.14644587,-4.184
 74673\H,0,7.29199996,-0.1326846,-2.65015101\C,0,6.14344531,-0.76970485
 ,-4.35016884\H,0,5.99238766,-0.45640081,-5.36205924\H,0,6.53061936,-1.
 76714435,-4.33964747\H,0,5.21115876,-0.7434435,-3.82571472\C,0,6.25918
 064,6.64338676,-0.82744413\H,0,6.03719885,7.68986353,-0.85003722\H,0,5
 .34855312,6.08433212,-0.88326013\H,0,6.76798731,6.40629921,0.08349235\
 \Version=EM64L-G09RevC.01\State=1-A\HF=-426.9771735\RMSD=6.891e-09\Dip
 ole=0.0037117,-0.0040783,-0.0131912\Quadrupole=-0.0733731,-1.001267,1.
 0746401,-0.3212588,-0.3221139,-0.7389209\PG=C01 [X(C11H22)]\\@


 LIFE IS SO UNCERTAIN - EAT DESSERT FIRST.
 Job cpu time:  0 days  0 hours  0 minutes 11.2 seconds.
 File lengths (MBytes):  RWF=     15 Int=      0 D2E=      0 Chk=      3 Scr=      1
 Normal termination of Gaussian 09 at Sun Jun 26 00:36:41 2022.
